
     Program PWSCF v.7.5 starts on  3Feb2026 at 23:43: 8 

     This program is part of the open-source Quantum ESPRESSO suite
     for quantum simulation of materials; please cite
         "P. Giannozzi et al., J. Phys.:Condens. Matter 21 395502 (2009);
         "P. Giannozzi et al., J. Phys.:Condens. Matter 29 465901 (2017);
         "P. Giannozzi et al., J. Chem. Phys. 152 154105 (2020);
          URL http://www.quantum-espresso.org", 
     in publications or presentations arising from this work. More details at
     http://www.quantum-espresso.org/quote

     Parallel version (MPI & OpenMP), running on      16 processor cores
     Number of MPI processes:                 4
     Threads/MPI process:                     4

     MPI processes distributed on     1 nodes
     1805 MiB available memory on the printing compute node when the environment starts
 
     Reading input from si_bands_scf.in
Warning: card &CELL ignored
Warning: card &FCP ignored
Warning: card &RISM ignored

     Current dimensions of program PWSCF are:
     Max number of different atomic species (ntypx) = 10
     Max number of k-points (npk) =  40000
     Max angular momentum in pseudopotentials (lmaxx) =  4
     Message from routine setup:
     using ibrav=0 with symmetry is DISCOURAGED, use correct ibrav instead
 
     R & G space division:  proc/nbgrp/npool/nimage =       4
     Subspace diagonalization in iterative solution of the eigenvalue problem:
     a serial algorithm will be used

 
     Parallelization info
     --------------------
     sticks:   dense  smooth     PW     G-vecs:    dense   smooth      PW
     Min         289     145     46                 6555     2313     409
     Max         290     146     47                 6559     2316     411
     Sum        1159     583    187                26229     9257    1639
 
     Using Slab Decomposition
 


     bravais-lattice index     =            0
     lattice parameter (alat)  =       7.2558  a.u.
     unit-cell volume          =     270.1072 (a.u.)^3
     number of atoms/cell      =            2
     number of atomic types    =            1
     number of electrons       =         8.00
     number of Kohn-Sham states=            8
     kinetic-energy cutoff     =      40.0000  Ry
     charge density cutoff     =     320.0000  Ry
     scf convergence threshold =      1.0E-08
     mixing beta               =       0.7000
     number of iterations used =            8  plain     mixing
     Exchange-correlation= PBE
                           (   1   4   3   4   0   0   0)

     celldm(1)=   7.255773  celldm(2)=   0.000000  celldm(3)=   0.000000
     celldm(4)=   0.000000  celldm(5)=   0.000000  celldm(6)=   0.000000

     crystal axes: (cart. coord. in units of alat)
               a(1) = (   0.000000   0.707107   0.707107 )  
               a(2) = (   0.707107   0.000000   0.707107 )  
               a(3) = (   0.707107   0.707107   0.000000 )  

     reciprocal axes: (cart. coord. in units 2 pi/alat)
               b(1) = ( -0.707107  0.707107  0.707107 )  
               b(2) = (  0.707107 -0.707107  0.707107 )  
               b(3) = (  0.707107  0.707107 -0.707107 )  


     PseudoPot. # 1 for Si read from file:
     /home/niel/git/DFT_Tutorial/qe_workshop_complete/pseudopotentials/PBE/Si.pbe-n-rrkjus_psl.1.0.0.UPF
     MD5 check sum: fa25574f73a70a4139f2adfbefec430c
     Pseudo is Ultrasoft + core correction, Zval =  4.0
     Generated using &quot;atomic&quot; code by A. Dal Corso  v.6.3
     Using radial grid of 1141 points,  6 beta functions with: 
                l(1) =   0
                l(2) =   0
                l(3) =   1
                l(4) =   1
                l(5) =   2
                l(6) =   2
     Q(r) pseudized with 0 coefficients 


     atomic species   valence    mass     pseudopotential
     Si                4.00    28.08500     Si( 1.00)

     48 Sym. Ops., with inversion, found (24 have fractional translation)



   Cartesian axes

     site n.     atom                  positions (alat units)
         1        Si     tau(   1) = (   0.0000000   0.0000000   0.0000000  )
         2        Si     tau(   2) = (   0.3535534   0.3535534   0.3535534  )

     number of k points=    29  Marzari-Vanderbilt smearing, width (Ry)=  0.0100
                       cart. coord. in units 2pi/alat
        k(    1) = (   0.0000000   0.0000000   0.0000000), wk =   0.0039062
        k(    2) = (   0.0883883   0.0883883  -0.0883883), wk =   0.0312500
        k(    3) = (   0.1767767   0.1767767  -0.1767767), wk =   0.0312500
        k(    4) = (   0.2651650   0.2651650  -0.2651650), wk =   0.0312500
        k(    5) = (  -0.3535534  -0.3535534   0.3535534), wk =   0.0156250
        k(    6) = (   0.1767767   0.0000000   0.0000000), wk =   0.0234375
        k(    7) = (   0.2651650   0.0883883  -0.0883883), wk =   0.0937500
        k(    8) = (   0.3535534   0.1767767  -0.1767767), wk =   0.0937500
        k(    9) = (  -0.2651650  -0.4419417   0.4419417), wk =   0.0937500
        k(   10) = (  -0.1767767  -0.3535534   0.3535534), wk =   0.0937500
        k(   11) = (  -0.0883883  -0.2651650   0.2651650), wk =   0.0937500
        k(   12) = (   0.0000000  -0.1767767   0.1767767), wk =   0.0468750
        k(   13) = (   0.3535534   0.0000000   0.0000000), wk =   0.0234375
        k(   14) = (   0.4419417   0.0883883  -0.0883883), wk =   0.0937500
        k(   15) = (  -0.1767767  -0.5303301   0.5303301), wk =   0.0937500
        k(   16) = (  -0.0883883  -0.4419417   0.4419417), wk =   0.0937500
        k(   17) = (   0.0000000  -0.3535534   0.3535534), wk =   0.0468750
        k(   18) = (   0.5303301   0.0000000   0.0000000), wk =   0.0234375
        k(   19) = (  -0.0883883  -0.6187184   0.6187184), wk =   0.0937500
        k(   20) = (   0.0000000  -0.5303301   0.5303301), wk =   0.0468750
        k(   21) = (  -0.7071068   0.0000000   0.0000000), wk =   0.0117188
        k(   22) = (   0.3535534   0.1767767   0.0000000), wk =   0.0937500
        k(   23) = (  -0.2651650  -0.4419417   0.6187184), wk =   0.1875000
        k(   24) = (  -0.1767767  -0.3535534   0.5303301), wk =   0.0937500
        k(   25) = (  -0.1767767  -0.5303301   0.7071068), wk =   0.0937500
        k(   26) = (  -0.0883883  -0.4419417   0.6187184), wk =   0.1875000
        k(   27) = (   0.0000000  -0.3535534   0.5303301), wk =   0.0937500
        k(   28) = (  -0.7071068   0.1767767   0.0000000), wk =   0.0468750
        k(   29) = (  -0.7071068   0.3535534   0.0000000), wk =   0.0234375

     Dense  grid:    26229 G-vectors     FFT dimensions: (  48,  48,  48)

     Smooth grid:     9257 G-vectors     FFT dimensions: (  32,  32,  32)

     Estimated max dynamical RAM per process >      26.06 MB

     Estimated total dynamical RAM >     104.23 MB

     Initial potential from superposition of free atoms

     starting charge       7.9989, renormalised to       8.0000
     Starting wfcs are    8 randomized atomic wfcs

     total cpu time spent up to now is        0.6 secs

     Self-consistent Calculation

     iteration #  1     ecut=    40.00 Ry     beta= 0.70
     Davidson diagonalization with overlap
     ethr =  1.00E-02,  avg # of iterations =  3.8

     Threshold (ethr) on eigenvalues was too large:
     Diagonalizing with lowered threshold

     Davidson diagonalization with overlap
     ethr =  6.48E-04,  avg # of iterations =  2.0

     total cpu time spent up to now is        2.3 secs

     total energy              =     -22.83696048 Ry
     estimated scf accuracy    <       0.05568295 Ry

     iteration #  2     ecut=    40.00 Ry     beta= 0.70
     Davidson diagonalization with overlap
     ethr =  6.96E-04,  avg # of iterations =  1.0

     total cpu time spent up to now is        3.4 secs

     WARNING: integrated charge=     8.00005135, expected=     8.00000000

     total energy              =     -22.83925169 Ry
     estimated scf accuracy    <       0.00221503 Ry

     iteration #  3     ecut=    40.00 Ry     beta= 0.70
     Davidson diagonalization with overlap
     ethr =  2.77E-05,  avg # of iterations =  4.8

     total cpu time spent up to now is        4.4 secs

     WARNING: integrated charge=     8.00008085, expected=     8.00000000

     total energy              =     -22.83938419 Ry
     estimated scf accuracy    <       0.00004795 Ry

     iteration #  4     ecut=    40.00 Ry     beta= 0.70
     Davidson diagonalization with overlap
     ethr =  5.99E-07,  avg # of iterations =  4.0

     total cpu time spent up to now is        5.5 secs

     WARNING: integrated charge=     8.00007440, expected=     8.00000000

     total energy              =     -22.83939778 Ry
     estimated scf accuracy    <       0.00000013 Ry

     iteration #  5     ecut=    40.00 Ry     beta= 0.70
     Davidson diagonalization with overlap
     ethr =  1.59E-09,  avg # of iterations =  3.5

     total cpu time spent up to now is        6.4 secs

     End of self-consistent calculation

          k = 0.0000 0.0000 0.0000 (  1139 PWs)   bands (ev):

    -5.7573   6.2075   6.2075   6.2075   8.7702   8.7702   8.7702   9.5719

          k = 0.0884 0.0884-0.0884 (  1173 PWs)   bands (ev):

    -5.5531   4.6076   5.9180   5.9180   8.7096   9.1951   9.1951  10.9187

          k = 0.1768 0.1768-0.1768 (  1152 PWs)   bands (ev):

    -4.9575   2.2782   5.4467   5.4467   8.2368   9.7141   9.7141  13.1274

          k = 0.2652 0.2652-0.2652 (  1155 PWs)   bands (ev):

    -4.0636   0.2573   5.1194   5.1194   7.8736   9.6600   9.6600  14.0963

          k =-0.3536-0.3536 0.3536 (  1158 PWs)   bands (ev):

    -3.4255  -0.7656   5.0074   5.0074   7.7457   9.5491   9.5491  13.9426

          k = 0.1768 0.0000 0.0000 (  1163 PWs)   bands (ev):

    -5.4843   4.8731   5.3997   5.3997   8.2193   9.9119   9.9119  10.6050

          k = 0.2652 0.0884-0.0884 (  1160 PWs)   bands (ev):

    -5.0156   2.9816   4.8875   4.9640   8.3564   9.9159  10.6771  10.9630

          k = 0.3536 0.1768-0.1768 (  1151 PWs)   bands (ev):

    -4.2006   0.9201   4.3721   4.6192   8.4561   9.8505  10.6741  11.6799

          k =-0.2652-0.4419 0.4419 (  1160 PWs)   bands (ev):

    -3.3389  -0.5440   3.9261   4.6437   8.4027   9.7245  10.3103  13.5819

          k =-0.1768-0.3536 0.3536 (  1151 PWs)   bands (ev):

    -3.5835  -0.1732   3.7442   4.9404   8.5690   9.8336  10.0778  14.1275

          k =-0.0884-0.2652 0.2652 (  1151 PWs)   bands (ev):

    -4.5069   1.5796   3.8951   5.4325   8.9273   9.8853  10.0669  12.5095

          k = 0.0000-0.1768 0.1768 (  1159 PWs)   bands (ev):

    -5.2169   3.5221   4.5775   5.9142   9.2498   9.3314   9.5694  11.7588

          k = 0.3536 0.0000 0.0000 (  1174 PWs)   bands (ev):

    -4.6753   2.6889   4.3158   4.3158   7.3384   9.3437  11.9667  11.9667

          k = 0.4419 0.0884-0.0884 (  1157 PWs)   bands (ev):

    -3.9652   1.2646   3.5349   3.9974   7.5595   9.1051  12.2076  12.4793

          k =-0.1768-0.5303 0.5303 (  1150 PWs)   bands (ev):

    -3.0389  -0.1780   2.6711   4.0005   7.7292  10.6597  11.9546  12.1300

          k =-0.0884-0.4419 0.4419 (  1150 PWs)   bands (ev):

    -2.8345  -0.4366   2.2124   4.3192   8.0536  11.6767  11.6901  13.1706

          k = 0.0000-0.3536 0.3536 (  1159 PWs)   bands (ev):

    -3.7133   0.7247   2.4525   4.8782   8.6588  10.9979  11.3452  12.3561

          k = 0.5303 0.0000 0.0000 (  1150 PWs)   bands (ev):

    -3.3626   0.4599   3.5987   3.5987   6.8238   7.7496  14.2505  14.2506

          k =-0.0884-0.6187 0.6187 (  1150 PWs)   bands (ev):

    -2.4651  -0.6255   2.7694   3.5225   7.1036   8.1770  14.4764  14.5639

          k = 0.0000-0.5303 0.5303 (  1144 PWs)   bands (ev):

    -2.0261  -1.0222   1.9030   3.7802   7.4132  10.3396  13.6779  14.2268

          k =-0.7071 0.0000 0.0000 (  1162 PWs)   bands (ev):

    -1.6124  -1.6124   3.3529   3.3529   6.9189   6.9189  16.3134  16.3135

          k = 0.3536 0.1768 0.0000 (  1153 PWs)   bands (ev):

    -4.4278   1.9160   3.4925   4.7785   8.6564  10.1107  10.4061  11.7118

          k =-0.2652-0.4419 0.6187 (  1150 PWs)   bands (ev):

    -3.5393   0.3634   2.8844   4.2766   9.0869   9.7641  11.2300  12.1473

          k =-0.1768-0.3536 0.5303 (  1154 PWs)   bands (ev):

    -2.8867  -0.5822   2.7556   4.0467   9.2762   9.3427  12.1219  13.6056

          k =-0.1768-0.5303 0.7071 (  1171 PWs)   bands (ev):

    -3.1639   0.2409   2.8431   3.4462   8.1563   8.8568  11.9643  14.2001

          k =-0.0884-0.4419 0.6187 (  1157 PWs)   bands (ev):

    -2.2889  -0.7275   2.1446   3.2454   8.5982  10.4925  11.4868  13.6501

          k = 0.0000-0.3536 0.5303 (  1153 PWs)   bands (ev):

    -2.6396  -0.3641   1.9777   3.6216   9.0782  10.7551  11.4257  13.2414

          k =-0.7071 0.1768 0.0000 (  1156 PWs)   bands (ev):

    -1.5343  -1.5343   2.7885   2.7885   8.1802   8.1802  14.0571  14.0571

          k =-0.7071 0.3536 0.0000 (  1144 PWs)   bands (ev):

    -1.4483  -1.4483   2.3524   2.3524  10.4815  10.4815  11.2121  11.2121

     the Fermi energy is     6.5888 ev

     WARNING: integrated charge=     8.00007243, expected=     8.00000000

!    total energy              =     -22.83939851 Ry
     estimated scf accuracy    <          9.1E-09 Ry
     smearing contrib. (-TS)   =       0.00000059 Ry
     internal energy E=F+TS    =     -22.83939909 Ry

     The total energy is F=E-TS. E is the sum of the following terms:
     one-electron contribution =       5.16828532 Ry
     hartree contribution      =       1.10107007 Ry
     xc contribution           =     -12.30981075 Ry
     ewald contribution        =     -16.79894373 Ry

     convergence has been achieved in   5 iterations

     Writing all to output data dir ./tmp/si_bands.save/ :
     XML data file, charge density, pseudopotentials, collected wavefunctions
 
     init_run     :      1.12s CPU      0.49s WALL (       1 calls)
     electrons    :     17.80s CPU      5.89s WALL (       1 calls)

     Called by init_run:
     wfcinit      :      0.58s CPU      0.27s WALL (       1 calls)
     potinit      :      0.09s CPU      0.04s WALL (       1 calls)
     hinit0       :      0.35s CPU      0.14s WALL (       1 calls)

     Called by electrons:
     c_bands      :     13.78s CPU      4.57s WALL (       6 calls)
     sum_band     :      3.02s CPU      1.02s WALL (       6 calls)
     v_of_rho     :      0.33s CPU      0.11s WALL (       6 calls)
     newd         :      0.65s CPU      0.19s WALL (       6 calls)
     mix_rho      :      0.04s CPU      0.01s WALL (       6 calls)

     Called by c_bands:
     init_us_2    :      0.22s CPU      0.09s WALL (     377 calls)
     cegterg      :     12.68s CPU      4.25s WALL (     174 calls)

     Called by *egterg:
     cdiaghg      :      0.23s CPU      0.07s WALL (     700 calls)
     h_psi        :      9.85s CPU      3.40s WALL (     758 calls)
     s_psi        :      0.07s CPU      0.02s WALL (     758 calls)
     g_psi        :      0.01s CPU      0.00s WALL (     555 calls)

     Called by h_psi:
     h_psi:calbec :      0.26s CPU      0.08s WALL (     758 calls)
     vloc_psi     :      9.35s CPU      3.24s WALL (     758 calls)
                                        0.00s GPU  (     758 calls)
     add_vuspsi   :      0.09s CPU      0.03s WALL (     758 calls)

     General routines
     calbec       :      0.33s CPU      0.10s WALL (     932 calls)
     fft          :      0.21s CPU      0.06s WALL (      77 calls)
     ffts         :      0.01s CPU      0.00s WALL (      12 calls)
     fftw         :      9.56s CPU      3.16s WALL (    9510 calls)
     interpolate  :      0.02s CPU      0.01s WALL (       6 calls)
 
     Parallel routines
 
     PWSCF        :     19.19s CPU      6.50s WALL

 
   This run was terminated on:  23:43:15   3Feb2026            

=------------------------------------------------------------------------------=
   JOB DONE.
=------------------------------------------------------------------------------=
