
     Program PWSCF v.7.5 starts on  3Feb2026 at 23:43:19 

     This program is part of the open-source Quantum ESPRESSO suite
     for quantum simulation of materials; please cite
         "P. Giannozzi et al., J. Phys.:Condens. Matter 21 395502 (2009);
         "P. Giannozzi et al., J. Phys.:Condens. Matter 29 465901 (2017);
         "P. Giannozzi et al., J. Chem. Phys. 152 154105 (2020);
          URL http://www.quantum-espresso.org", 
     in publications or presentations arising from this work. More details at
     http://www.quantum-espresso.org/quote

     Parallel version (MPI & OpenMP), running on      16 processor cores
     Number of MPI processes:                 4
     Threads/MPI process:                     4

     MPI processes distributed on     1 nodes
     1899 MiB available memory on the printing compute node when the environment starts
 
     Reading input from si_bands_bands.in

     Current dimensions of program PWSCF are:
     Max number of different atomic species (ntypx) = 10
     Max number of k-points (npk) =  40000
     Max angular momentum in pseudopotentials (lmaxx) =  4

     Atomic positions and unit cell read from directory:
     ./tmp/si_bands.save/
 
     Message from routine setup:
     using ibrav=0 with symmetry is DISCOURAGED, use correct ibrav instead
 
     R & G space division:  proc/nbgrp/npool/nimage =       4
     Subspace diagonalization in iterative solution of the eigenvalue problem:
     a serial algorithm will be used

 
     Parallelization info
     --------------------
     sticks:   dense  smooth     PW     G-vecs:    dense   smooth      PW
     Min         289     145     42                 6555     2313     367
     Max         290     146     43                 6559     2316     368
     Sum        1159     583    169                26229     9257    1471
 
     Using Slab Decomposition
 


     bravais-lattice index     =            0
     lattice parameter (alat)  =       7.2558  a.u.
     unit-cell volume          =     270.1072 (a.u.)^3
     number of atoms/cell      =            2
     number of atomic types    =            1
     number of electrons       =         8.00
     number of Kohn-Sham states=           12
     kinetic-energy cutoff     =      40.0000  Ry
     charge density cutoff     =     320.0000  Ry
     Exchange-correlation= PBE
                           (   1   4   3   4   0   0   0)

     celldm(1)=   7.255773  celldm(2)=   0.000000  celldm(3)=   0.000000
     celldm(4)=   0.000000  celldm(5)=   0.000000  celldm(6)=   0.000000

     crystal axes: (cart. coord. in units of alat)
               a(1) = (   0.000000   0.707107   0.707107 )  
               a(2) = (   0.707107   0.000000   0.707107 )  
               a(3) = (   0.707107   0.707107   0.000000 )  

     reciprocal axes: (cart. coord. in units 2 pi/alat)
               b(1) = ( -0.707107  0.707107  0.707107 )  
               b(2) = (  0.707107 -0.707107  0.707107 )  
               b(3) = (  0.707107  0.707107 -0.707107 )  


     PseudoPot. # 1 for Si read from file:
     /home/niel/git/DFT_Tutorial/qe_workshop_complete/pseudopotentials/PBE/Si.pbe-n-rrkjus_psl.1.0.0.UPF
     MD5 check sum: fa25574f73a70a4139f2adfbefec430c
     Pseudo is Ultrasoft + core correction, Zval =  4.0
     Generated using &quot;atomic&quot; code by A. Dal Corso  v.6.3
     Using radial grid of 1141 points,  6 beta functions with: 
                l(1) =   0
                l(2) =   0
                l(3) =   1
                l(4) =   1
                l(5) =   2
                l(6) =   2
     Q(r) pseudized with 0 coefficients 


     atomic species   valence    mass     pseudopotential
     Si                4.00    28.08550     Si( 1.00)

     48 Sym. Ops., with inversion, found (24 have fractional translation)



   Cartesian axes

     site n.     atom                  positions (alat units)
         1        Si     tau(   1) = (   0.0000000   0.0000000   0.0000000  )
         2        Si     tau(   2) = (   0.3535534   0.3535534   0.3535534  )

     number of k points=    41
                       cart. coord. in units 2pi/alat
        k(    1) = (   0.0000000   0.0000000   0.0000000), wk =   0.0487805
        k(    2) = (   0.0000000   0.0353553   0.0000000), wk =   0.0487805
        k(    3) = (   0.0000000   0.0707107   0.0000000), wk =   0.0487805
        k(    4) = (   0.0000000   0.1060660   0.0000000), wk =   0.0487805
        k(    5) = (   0.0000000   0.1414214   0.0000000), wk =   0.0487805
        k(    6) = (   0.0000000   0.1767767   0.0000000), wk =   0.0487805
        k(    7) = (   0.0000000   0.2121320   0.0000000), wk =   0.0487805
        k(    8) = (   0.0000000   0.2474874   0.0000000), wk =   0.0487805
        k(    9) = (   0.0000000   0.2828427   0.0000000), wk =   0.0487805
        k(   10) = (   0.0000000   0.3181981   0.0000000), wk =   0.0487805
        k(   11) = (   0.0000000   0.3535534   0.0000000), wk =   0.0487805
        k(   12) = (   0.0000000   0.3889087   0.0000000), wk =   0.0487805
        k(   13) = (   0.0000000   0.4242641   0.0000000), wk =   0.0487805
        k(   14) = (   0.0000000   0.4596194   0.0000000), wk =   0.0487805
        k(   15) = (   0.0000000   0.4949747   0.0000000), wk =   0.0487805
        k(   16) = (   0.0000000   0.5303301   0.0000000), wk =   0.0487805
        k(   17) = (   0.0000000   0.5656854   0.0000000), wk =   0.0487805
        k(   18) = (   0.0000000   0.6010408   0.0000000), wk =   0.0487805
        k(   19) = (   0.0000000   0.6363961   0.0000000), wk =   0.0487805
        k(   20) = (   0.0000000   0.6717514   0.0000000), wk =   0.0487805
        k(   21) = (   0.0000000   0.7071068   0.0000000), wk =   0.0487805
        k(   22) = (   0.0000000   0.6717514   0.0000000), wk =   0.0487805
        k(   23) = (   0.0000000   0.6363961   0.0000000), wk =   0.0487805
        k(   24) = (   0.0000000   0.6010408   0.0000000), wk =   0.0487805
        k(   25) = (   0.0000000   0.5656854   0.0000000), wk =   0.0487805
        k(   26) = (   0.0000000   0.5303301   0.0000000), wk =   0.0487805
        k(   27) = (   0.0000000   0.4949747   0.0000000), wk =   0.0487805
        k(   28) = (   0.0000000   0.4596194   0.0000000), wk =   0.0487805
        k(   29) = (   0.0000000   0.4242641   0.0000000), wk =   0.0487805
        k(   30) = (   0.0000000   0.3889087   0.0000000), wk =   0.0487805
        k(   31) = (   0.0000000   0.3535534   0.0000000), wk =   0.0487805
        k(   32) = (   0.0000000   0.3181981   0.0000000), wk =   0.0487805
        k(   33) = (   0.0000000   0.2828427   0.0000000), wk =   0.0487805
        k(   34) = (   0.0000000   0.2474874   0.0000000), wk =   0.0487805
        k(   35) = (   0.0000000   0.2121320   0.0000000), wk =   0.0487805
        k(   36) = (   0.0000000   0.1767767   0.0000000), wk =   0.0487805
        k(   37) = (   0.0000000   0.1414214   0.0000000), wk =   0.0487805
        k(   38) = (   0.0000000   0.1060660   0.0000000), wk =   0.0487805
        k(   39) = (   0.0000000   0.0707107   0.0000000), wk =   0.0487805
        k(   40) = (   0.0000000   0.0353553   0.0000000), wk =   0.0487805
        k(   41) = (   0.0000000   0.0000000   0.0000000), wk =   0.0487805

     Dense  grid:    26229 G-vectors     FFT dimensions: (  48,  48,  48)

     Smooth grid:     9257 G-vectors     FFT dimensions: (  32,  32,  32)

     Estimated max dynamical RAM per process >      23.14 MB

     Estimated total dynamical RAM >      92.57 MB

     The potential is recalculated from file :
     ./tmp/si_bands.save/charge-density

     Starting wfcs are    8 randomized atomic wfcs +    4 random wfcs

     Band Structure Calculation
     Davidson diagonalization with overlap

     ethr =  1.25E-08,  avg # of iterations = 30.0

     total cpu time spent up to now is       11.9 secs

     End of band structure calculation

          k = 0.0000 0.0000 0.0000 (  1139 PWs)   bands (ev):

    -5.7570   6.2078   6.2078   6.2078   8.7703   8.7703   8.7703   9.5722
    13.9379  13.9379  14.1734  17.4689

          k = 0.0000 0.0354 0.0000 (  1163 PWs)   bands (ev):

    -5.7461   6.1333   6.1607   6.1607   8.7432   8.8309   8.8309   9.6450
    13.8487  13.9500  14.2221  17.4879

          k = 0.0000 0.0707 0.0000 (  1171 PWs)   bands (ev):

    -5.7133   5.9277   6.0317   6.0317   8.6651   9.0003   9.0003   9.8425
    13.6098  13.9863  14.3651  17.5450

          k = 0.0000 0.1061 0.0000 (  1171 PWs)   bands (ev):

    -5.6586   5.6282   5.8468   5.8468   8.5444   9.2524   9.2524  10.1150
    13.2866  14.0470  14.5934  17.6398

          k = 0.0000 0.1414 0.0000 (  1171 PWs)   bands (ev):

    -5.5822   5.2691   5.6304   5.6304   8.3921   9.5623   9.5623  10.3990
    12.9578  14.1318  14.8956  17.7720

          k = 0.0000 0.1768 0.0000 (  1163 PWs)   bands (ev):

    -5.4841   4.8734   5.4000   5.4000   8.2195   9.9121   9.9121  10.6053
    12.7231  14.2408  15.2596  17.9410

          k = 0.0000 0.2121 0.0000 (  1163 PWs)   bands (ev):

    -5.3645   4.4554   5.1668   5.1668   8.0365  10.2903  10.2903  10.6230
    12.7010  14.3741  15.6741  18.1452

          k = 0.0000 0.2475 0.0000 (  1162 PWs)   bands (ev):

    -5.2236   4.0237   4.9379   4.9379   7.8512  10.4254  10.6892  10.6892
    12.9231  14.5314  16.1294  18.3824

          k = 0.0000 0.2828 0.0000 (  1170 PWs)   bands (ev):

    -5.0615   3.5833   4.7180   4.7180   7.6700  10.0998  11.1037  11.1037
    13.3050  14.7129  16.6164  18.6482

          k = 0.0000 0.3182 0.0000 (  1162 PWs)   bands (ev):

    -4.8785   3.1377   4.5099   4.5099   7.4979   9.7257  11.5305  11.5305
    13.7686  14.9184  17.1262  18.9345

          k = 0.0000 0.3536 0.0000 (  1174 PWs)   bands (ev):

    -4.6750   2.6892   4.3160   4.3160   7.3387   9.3439  11.9669  11.9669
    14.2736  15.1480  17.6494  19.2265

          k = 0.0000 0.3889 0.0000 (  1158 PWs)   bands (ev):

    -4.4512   2.2396   4.1377   4.1377   7.1954   8.9737  12.4115  12.4115
    14.7997  15.4015  18.1743  19.4949

          k = 0.0000 0.4243 0.0000 (  1146 PWs)   bands (ev):

    -4.2076   1.7904   3.9761   3.9761   7.0705   8.6250  12.8629  12.8629
    15.3355  15.6788  18.6852  19.6853

          k = 0.0000 0.4596 0.0000 (  1150 PWs)   bands (ev):

    -3.9445   1.3431   3.8320   3.8320   6.9659   8.3031  13.3204  13.3204
    15.8733  15.9800  19.1599  19.7200

          k = 0.0000 0.4950 0.0000 (  1158 PWs)   bands (ev):

    -3.6626   0.8992   3.7061   3.7061   6.8833   8.0109  13.7832  13.7832
    16.3049  16.4074  19.5527  19.5528

          k = 0.0000 0.5303 0.0000 (  1150 PWs)   bands (ev):

    -3.3623   0.4602   3.5989   3.5989   6.8241   7.7499  14.2508  14.2508
    16.6533  16.9331  19.2220  19.2220

          k = 0.0000 0.5657 0.0000 (  1154 PWs)   bands (ev):

    -3.0444   0.0274   3.5108   3.5108   6.7895   7.5207  14.7219  14.7219
    17.0252  17.4459  18.7985  18.7985

          k = 0.0000 0.6010 0.0000 (  1154 PWs)   bands (ev):

    -2.7095  -0.3976   3.4419   3.4419   6.7807   7.3235  15.1936  15.1936
    17.4204  17.9416  18.3340  18.3340

          k = 0.0000 0.6364 0.0000 (  1154 PWs)   bands (ev):

    -2.3586  -0.8134   3.3926   3.3926   6.7988   7.1579  15.6581  15.6581
    17.8388  17.8624  17.8624  18.4148

          k = 0.0000 0.6718 0.0000 (  1162 PWs)   bands (ev):

    -1.9924  -1.2187   3.3630   3.3630   6.8446   7.0233  16.0847  16.0847
    17.4276  17.4276  18.2802  18.8583

          k = 0.0000 0.7071 0.0000 (  1162 PWs)   bands (ev):

    -1.6121  -1.6121   3.3531   3.3531   6.9192   6.9192  16.3137  16.3137
    17.1952  17.1952  18.7443  18.7443

          k = 0.0000 0.6718 0.0000 (  1162 PWs)   bands (ev):

    -1.9924  -1.2187   3.3630   3.3630   6.8446   7.0233  16.0847  16.0847
    17.4276  17.4276  18.2802  18.8583

          k = 0.0000 0.6364 0.0000 (  1154 PWs)   bands (ev):

    -2.3586  -0.8134   3.3926   3.3926   6.7988   7.1579  15.6581  15.6581
    17.8388  17.8624  17.8624  18.4148

          k = 0.0000 0.6010 0.0000 (  1154 PWs)   bands (ev):

    -2.7095  -0.3976   3.4419   3.4419   6.7807   7.3235  15.1936  15.1936
    17.4204  17.9416  18.3340  18.3340

          k = 0.0000 0.5657 0.0000 (  1154 PWs)   bands (ev):

    -3.0444   0.0274   3.5108   3.5108   6.7895   7.5207  14.7219  14.7219
    17.0252  17.4459  18.7985  18.7985

          k = 0.0000 0.5303 0.0000 (  1150 PWs)   bands (ev):

    -3.3623   0.4602   3.5989   3.5989   6.8241   7.7499  14.2508  14.2508
    16.6533  16.9331  19.2220  19.2220

          k = 0.0000 0.4950 0.0000 (  1158 PWs)   bands (ev):

    -3.6626   0.8992   3.7061   3.7061   6.8833   8.0109  13.7832  13.7832
    16.3049  16.4074  19.5527  19.5527

          k = 0.0000 0.4596 0.0000 (  1150 PWs)   bands (ev):

    -3.9445   1.3431   3.8320   3.8320   6.9659   8.3031  13.3204  13.3204
    15.8733  15.9800  19.1599  19.7200

          k = 0.0000 0.4243 0.0000 (  1146 PWs)   bands (ev):

    -4.2076   1.7904   3.9761   3.9761   7.0705   8.6250  12.8629  12.8629
    15.3355  15.6788  18.6852  19.6853

          k = 0.0000 0.3889 0.0000 (  1158 PWs)   bands (ev):

    -4.4512   2.2396   4.1377   4.1377   7.1954   8.9737  12.4115  12.4115
    14.7997  15.4015  18.1743  19.4949

          k = 0.0000 0.3536 0.0000 (  1174 PWs)   bands (ev):

    -4.6750   2.6892   4.3160   4.3160   7.3387   9.3439  11.9669  11.9669
    14.2736  15.1480  17.6494  19.2265

          k = 0.0000 0.3182 0.0000 (  1162 PWs)   bands (ev):

    -4.8785   3.1377   4.5099   4.5099   7.4979   9.7257  11.5305  11.5305
    13.7686  14.9184  17.1262  18.9345

          k = 0.0000 0.2828 0.0000 (  1170 PWs)   bands (ev):

    -5.0615   3.5833   4.7180   4.7180   7.6700  10.0998  11.1037  11.1037
    13.3050  14.7129  16.6164  18.6482

          k = 0.0000 0.2475 0.0000 (  1162 PWs)   bands (ev):

    -5.2236   4.0237   4.9379   4.9379   7.8512  10.4254  10.6892  10.6892
    12.9231  14.5314  16.1294  18.3824

          k = 0.0000 0.2121 0.0000 (  1163 PWs)   bands (ev):

    -5.3645   4.4554   5.1668   5.1668   8.0365  10.2903  10.2903  10.6230
    12.7010  14.3741  15.6741  18.1452

          k = 0.0000 0.1768 0.0000 (  1163 PWs)   bands (ev):

    -5.4841   4.8734   5.4000   5.4000   8.2195   9.9121   9.9121  10.6053
    12.7231  14.2408  15.2596  17.9410

          k = 0.0000 0.1414 0.0000 (  1171 PWs)   bands (ev):

    -5.5822   5.2691   5.6304   5.6304   8.3921   9.5623   9.5623  10.3990
    12.9578  14.1318  14.8956  17.7720

          k = 0.0000 0.1061 0.0000 (  1171 PWs)   bands (ev):

    -5.6586   5.6282   5.8468   5.8468   8.5444   9.2524   9.2524  10.1150
    13.2866  14.0470  14.5934  17.6398

          k = 0.0000 0.0707 0.0000 (  1171 PWs)   bands (ev):

    -5.7133   5.9277   6.0317   6.0317   8.6651   9.0003   9.0003   9.8425
    13.6098  13.9863  14.3651  17.5450

          k = 0.0000 0.0354 0.0000 (  1163 PWs)   bands (ev):

    -5.7461   6.1333   6.1607   6.1607   8.7432   8.8309   8.8309   9.6450
    13.8487  13.9500  14.2221  17.4879

          k = 0.0000 0.0000 0.0000 (  1139 PWs)   bands (ev):

    -5.7570   6.2078   6.2078   6.2078   8.7703   8.7703   8.7703   9.5722
    13.9379  13.9379  14.1734  17.4689

     Writing all to output data dir ./tmp/si_bands.save/ :
     XML data file, pseudopotentials, collected wavefunctions
 
     init_run     :      0.41s CPU      0.17s WALL (       1 calls)
     electrons    :     35.11s CPU     11.62s WALL (       1 calls)

     Called by init_run:
     wfcinit      :      0.00s CPU      0.00s WALL (       1 calls)
     potinit      :      0.09s CPU      0.03s WALL (       1 calls)
     hinit0       :      0.19s CPU      0.07s WALL (       1 calls)

     Called by electrons:
     c_bands      :     35.11s CPU     11.62s WALL (       1 calls)
     v_of_rho     :      0.08s CPU      0.03s WALL (       1 calls)
     newd         :      0.10s CPU      0.04s WALL (       1 calls)

     Called by c_bands:
     init_us_2    :      0.03s CPU      0.01s WALL (      41 calls)
     cegterg      :     33.47s CPU     11.09s WALL (      83 calls)

     Called by *egterg:
     cdiaghg      :      1.28s CPU      0.37s WALL (    1270 calls)
     h_psi        :     25.90s CPU      8.60s WALL (    1353 calls)
     s_psi        :      0.17s CPU      0.05s WALL (    1353 calls)
     g_psi        :      0.04s CPU      0.01s WALL (    1229 calls)

     Called by h_psi:
     h_psi:calbec :      0.53s CPU      0.16s WALL (    1353 calls)
     vloc_psi     :     24.88s CPU      8.26s WALL (    1353 calls)
                                        0.00s GPU  (    1353 calls)
     add_vuspsi   :      0.20s CPU      0.06s WALL (    1353 calls)

     General routines
     calbec       :      0.52s CPU      0.16s WALL (    1353 calls)
     fft          :      0.02s CPU      0.01s WALL (      13 calls)
     ffts         :      0.00s CPU      0.00s WALL (       1 calls)
     fftw         :     20.70s CPU      6.53s WALL (   19306 calls)
     interpolate  :      0.01s CPU      0.00s WALL (       1 calls)
     davcio       :      0.01s CPU      0.00s WALL (      82 calls)
 
     Parallel routines
 
     PWSCF        :     35.79s CPU     11.93s WALL

 
   This run was terminated on:  23:43:31   3Feb2026            

=------------------------------------------------------------------------------=
   JOB DONE.
=------------------------------------------------------------------------------=
