
     Program PWSCF v.7.5 starts on  3Feb2026 at 23:41: 3 

     This program is part of the open-source Quantum ESPRESSO suite
     for quantum simulation of materials; please cite
         "P. Giannozzi et al., J. Phys.:Condens. Matter 21 395502 (2009);
         "P. Giannozzi et al., J. Phys.:Condens. Matter 29 465901 (2017);
         "P. Giannozzi et al., J. Chem. Phys. 152 154105 (2020);
          URL http://www.quantum-espresso.org", 
     in publications or presentations arising from this work. More details at
     http://www.quantum-espresso.org/quote

     Parallel version (MPI & OpenMP), running on      16 processor cores
     Number of MPI processes:                 4
     Threads/MPI process:                     4

     MPI processes distributed on     1 nodes
     1578 MiB available memory on the printing compute node when the environment starts
 
     Reading input from test_ecut_50.in
Warning: card &CELL ignored
Warning: card &FCP ignored
Warning: card &RISM ignored

     Current dimensions of program PWSCF are:
     Max number of different atomic species (ntypx) = 10
     Max number of k-points (npk) =  40000
     Max angular momentum in pseudopotentials (lmaxx) =  4
     Message from routine setup:
     using ibrav=0 with symmetry is DISCOURAGED, use correct ibrav instead
 
     R & G space division:  proc/nbgrp/npool/nimage =       4
     Subspace diagonalization in iterative solution of the eigenvalue problem:
     a serial algorithm will be used

 
     Parallelization info
     --------------------
     sticks:   dense  smooth     PW     G-vecs:    dense   smooth      PW
     Min         362     183     52                 9081     3234     526
     Max         364     184     53                 9082     3236     529
     Sum        1453     733    211                36325    12939    2109
 
     Using Slab Decomposition
 


     bravais-lattice index     =            0
     lattice parameter (alat)  =       7.2558  a.u.
     unit-cell volume          =     270.1072 (a.u.)^3
     number of atoms/cell      =            2
     number of atomic types    =            1
     number of electrons       =         8.00
     number of Kohn-Sham states=            8
     kinetic-energy cutoff     =      50.0000  Ry
     charge density cutoff     =     400.0000  Ry
     scf convergence threshold =      1.0E-06
     mixing beta               =       0.7000
     number of iterations used =            8  plain     mixing
     Exchange-correlation= PBE
                           (   1   4   3   4   0   0   0)

     celldm(1)=   7.255773  celldm(2)=   0.000000  celldm(3)=   0.000000
     celldm(4)=   0.000000  celldm(5)=   0.000000  celldm(6)=   0.000000

     crystal axes: (cart. coord. in units of alat)
               a(1) = (   0.000000   0.707107   0.707107 )  
               a(2) = (   0.707107   0.000000   0.707107 )  
               a(3) = (   0.707107   0.707107   0.000000 )  

     reciprocal axes: (cart. coord. in units 2 pi/alat)
               b(1) = ( -0.707107  0.707107  0.707107 )  
               b(2) = (  0.707107 -0.707107  0.707107 )  
               b(3) = (  0.707107  0.707107 -0.707107 )  


     PseudoPot. # 1 for Si read from file:
     /home/niel/git/DFT_Tutorial/qe_workshop_complete/pseudopotentials/PBE/Si.pbe-n-rrkjus_psl.1.0.0.UPF
     MD5 check sum: fa25574f73a70a4139f2adfbefec430c
     Pseudo is Ultrasoft + core correction, Zval =  4.0
     Generated using &quot;atomic&quot; code by A. Dal Corso  v.6.3
     Using radial grid of 1141 points,  6 beta functions with: 
                l(1) =   0
                l(2) =   0
                l(3) =   1
                l(4) =   1
                l(5) =   2
                l(6) =   2
     Q(r) pseudized with 0 coefficients 


     atomic species   valence    mass     pseudopotential
     Si                4.00    28.08500     Si( 1.00)

     48 Sym. Ops., with inversion, found (24 have fractional translation)



   Cartesian axes

     site n.     atom                  positions (alat units)
         1        Si     tau(   1) = (   0.0000000   0.0000000   0.0000000  )
         2        Si     tau(   2) = (   0.3535534   0.3535534   0.3535534  )

     number of k points=     8  Marzari-Vanderbilt smearing, width (Ry)=  0.0100
                       cart. coord. in units 2pi/alat
        k(    1) = (   0.0000000   0.0000000   0.0000000), wk =   0.0312500
        k(    2) = (   0.1767767   0.1767767  -0.1767767), wk =   0.2500000
        k(    3) = (  -0.3535534  -0.3535534   0.3535534), wk =   0.1250000
        k(    4) = (   0.3535534   0.0000000   0.0000000), wk =   0.1875000
        k(    5) = (  -0.1767767  -0.5303301   0.5303301), wk =   0.7500000
        k(    6) = (   0.0000000  -0.3535534   0.3535534), wk =   0.3750000
        k(    7) = (  -0.7071068   0.0000000   0.0000000), wk =   0.0937500
        k(    8) = (  -0.7071068   0.3535534   0.0000000), wk =   0.1875000

     Dense  grid:    36325 G-vectors     FFT dimensions: (  48,  48,  48)

     Smooth grid:    12939 G-vectors     FFT dimensions: (  36,  36,  36)

     Estimated max dynamical RAM per process >      34.31 MB

     Estimated total dynamical RAM >     137.23 MB

     Initial potential from superposition of free atoms

     starting charge       7.9989, renormalised to       8.0000
     Starting wfcs are    8 randomized atomic wfcs

     total cpu time spent up to now is        0.4 secs

     Self-consistent Calculation

     iteration #  1     ecut=    50.00 Ry     beta= 0.70
     Davidson diagonalization with overlap
     ethr =  1.00E-02,  avg # of iterations =  3.8

     Threshold (ethr) on eigenvalues was too large:
     Diagonalizing with lowered threshold

     Davidson diagonalization with overlap
     ethr =  7.18E-04,  avg # of iterations =  1.5

     total cpu time spent up to now is        1.0 secs

     total energy              =     -22.82310639 Ry
     estimated scf accuracy    <       0.06163898 Ry

     iteration #  2     ecut=    50.00 Ry     beta= 0.70
     Davidson diagonalization with overlap
     ethr =  7.70E-04,  avg # of iterations =  1.0

     total cpu time spent up to now is        1.4 secs

     WARNING: integrated charge=     8.00009419, expected=     8.00000000

     total energy              =     -22.82570567 Ry
     estimated scf accuracy    <       0.00249956 Ry

     iteration #  3     ecut=    50.00 Ry     beta= 0.70
     Davidson diagonalization with overlap
     ethr =  3.12E-05,  avg # of iterations =  3.8

     total cpu time spent up to now is        2.0 secs

     WARNING: integrated charge=     8.00017484, expected=     8.00000000

     total energy              =     -22.82588749 Ry
     estimated scf accuracy    <       0.00005526 Ry

     iteration #  4     ecut=    50.00 Ry     beta= 0.70
     Davidson diagonalization with overlap
     ethr =  6.91E-07,  avg # of iterations =  3.1

     total cpu time spent up to now is        2.4 secs

     End of self-consistent calculation

          k = 0.0000 0.0000 0.0000 (  1639 PWs)   bands (ev):

    -5.7235   6.2498   6.2498   6.2498   8.7946   8.7946   8.7946   9.6169

          k = 0.1768 0.1768-0.1768 (  1618 PWs)   bands (ev):

    -4.9231   2.3139   5.4855   5.4855   8.2706   9.7398   9.7400  13.1699

          k =-0.3536-0.3536 0.3536 (  1622 PWs)   bands (ev):

    -3.3886  -0.7338   5.0455   5.0455   7.7808   9.5709   9.5709  13.9692

          k = 0.3536 0.0000 0.0000 (  1612 PWs)   bands (ev):

    -4.6407   2.7301   4.3501   4.3501   7.3642   9.3675  12.0000  12.0000

          k =-0.1768-0.5303 0.5303 (  1617 PWs)   bands (ev):

    -3.0024  -0.1415   2.7023   4.0346   7.7542  10.6890  11.9897  12.1573

          k = 0.0000-0.3536 0.3536 (  1604 PWs)   bands (ev):

    -3.6776   0.7625   2.4822   4.9152   8.6851  11.0234  11.3839  12.3882

          k =-0.7071 0.0000 0.0000 (  1604 PWs)   bands (ev):

    -1.5752  -1.5752   3.3856   3.3856   6.9433   6.9434  16.3474  16.3474

          k =-0.7071 0.3536 0.0000 (  1628 PWs)   bands (ev):

    -1.4101  -1.4101   2.3811   2.3811  10.5124  10.5124  11.2400  11.2400

     the Fermi energy is     6.6744 ev

     WARNING: integrated charge=     8.00014990, expected=     8.00000000

!    total energy              =     -22.82591127 Ry
     estimated scf accuracy    <       0.00000018 Ry
     smearing contrib. (-TS)   =       0.00000118 Ry
     internal energy E=F+TS    =     -22.82591245 Ry

     The total energy is F=E-TS. E is the sum of the following terms:
     one-electron contribution =       5.17014501 Ry
     hartree contribution      =       1.12416316 Ry
     xc contribution           =     -12.32127688 Ry
     ewald contribution        =     -16.79894373 Ry

     convergence has been achieved in   4 iterations

     Forces acting on atoms (cartesian axes, Ry/au):

     atom    1 type  1   force =     0.00000000    0.00000000   -0.00000000
     atom    2 type  1   force =     0.00000000    0.00000000    0.00000000

     Total force =     0.000000     Total SCF correction =     0.000000

     Writing all to output data dir ./tmp/test_ecut_50.save/ :
     XML data file, charge density, pseudopotentials, collected wavefunctions
 
     init_run     :      0.81s CPU      0.31s WALL (       1 calls)
     electrons    :      6.03s CPU      2.02s WALL (       1 calls)
     forces       :      0.36s CPU      0.12s WALL (       1 calls)

     Called by init_run:
     wfcinit      :      0.22s CPU      0.09s WALL (       1 calls)
     potinit      :      0.08s CPU      0.03s WALL (       1 calls)
     hinit0       :      0.34s CPU      0.11s WALL (       1 calls)

     Called by electrons:
     c_bands      :      4.04s CPU      1.36s WALL (       5 calls)
     sum_band     :      1.31s CPU      0.44s WALL (       5 calls)
     v_of_rho     :      0.11s CPU      0.03s WALL (       5 calls)
     newd         :      0.64s CPU      0.21s WALL (       5 calls)
     mix_rho      :      0.04s CPU      0.01s WALL (       5 calls)

     Called by c_bands:
     init_us_2    :      0.09s CPU      0.03s WALL (      96 calls)
     cegterg      :      3.85s CPU      1.31s WALL (      40 calls)

     Called by *egterg:
     cdiaghg      :      0.04s CPU      0.01s WALL (     137 calls)
     h_psi        :      3.15s CPU      1.10s WALL (     153 calls)
     s_psi        :      0.02s CPU      0.00s WALL (     153 calls)
     g_psi        :      0.00s CPU      0.00s WALL (     105 calls)

     Called by h_psi:
     h_psi:calbec :      0.05s CPU      0.01s WALL (     153 calls)
     vloc_psi     :      3.00s CPU      1.04s WALL (     153 calls)
                                        0.00s GPU  (     153 calls)
     add_vuspsi   :      0.02s CPU      0.01s WALL (     153 calls)

     General routines
     calbec       :      0.11s CPU      0.03s WALL (     225 calls)
     fft          :      0.18s CPU      0.06s WALL (      75 calls)
     ffts         :      0.00s CPU      0.00s WALL (      10 calls)
     fftw         :      2.72s CPU      0.88s WALL (    2112 calls)
     interpolate  :      0.01s CPU      0.00s WALL (       5 calls)
 
     Parallel routines
 
     PWSCF        :      7.35s CPU      2.54s WALL

 
   This run was terminated on:  23:41: 5   3Feb2026            

=------------------------------------------------------------------------------=
   JOB DONE.
=------------------------------------------------------------------------------=
