
     Program PWSCF v.7.5 starts on  3Feb2026 at 23:40:50 

     This program is part of the open-source Quantum ESPRESSO suite
     for quantum simulation of materials; please cite
         "P. Giannozzi et al., J. Phys.:Condens. Matter 21 395502 (2009);
         "P. Giannozzi et al., J. Phys.:Condens. Matter 29 465901 (2017);
         "P. Giannozzi et al., J. Chem. Phys. 152 154105 (2020);
          URL http://www.quantum-espresso.org", 
     in publications or presentations arising from this work. More details at
     http://www.quantum-espresso.org/quote

     Parallel version (MPI & OpenMP), running on      16 processor cores
     Number of MPI processes:                 4
     Threads/MPI process:                     4

     MPI processes distributed on     1 nodes
     1639 MiB available memory on the printing compute node when the environment starts
 
     Reading input from test_ecut_30.in
Warning: card &CELL ignored
Warning: card &FCP ignored
Warning: card &RISM ignored

     Current dimensions of program PWSCF are:
     Max number of different atomic species (ntypx) = 10
     Max number of k-points (npk) =  40000
     Max angular momentum in pseudopotentials (lmaxx) =  4
     Message from routine setup:
     using ibrav=0 with symmetry is DISCOURAGED, use correct ibrav instead
 
     R & G space division:  proc/nbgrp/npool/nimage =       4
     Subspace diagonalization in iterative solution of the eigenvalue problem:
     a serial algorithm will be used

 
     Parallelization info
     --------------------
     sticks:   dense  smooth     PW     G-vecs:    dense   smooth      PW
     Min         214     108     34                 4221     1495     266
     Max         215     109     35                 4224     1498     267
     Sum         859     433    139                16889     5985    1067
 
     Using Slab Decomposition
 


     bravais-lattice index     =            0
     lattice parameter (alat)  =       7.2558  a.u.
     unit-cell volume          =     270.1072 (a.u.)^3
     number of atoms/cell      =            2
     number of atomic types    =            1
     number of electrons       =         8.00
     number of Kohn-Sham states=            8
     kinetic-energy cutoff     =      30.0000  Ry
     charge density cutoff     =     240.0000  Ry
     scf convergence threshold =      1.0E-06
     mixing beta               =       0.7000
     number of iterations used =            8  plain     mixing
     Exchange-correlation= PBE
                           (   1   4   3   4   0   0   0)

     celldm(1)=   7.255773  celldm(2)=   0.000000  celldm(3)=   0.000000
     celldm(4)=   0.000000  celldm(5)=   0.000000  celldm(6)=   0.000000

     crystal axes: (cart. coord. in units of alat)
               a(1) = (   0.000000   0.707107   0.707107 )  
               a(2) = (   0.707107   0.000000   0.707107 )  
               a(3) = (   0.707107   0.707107   0.000000 )  

     reciprocal axes: (cart. coord. in units 2 pi/alat)
               b(1) = ( -0.707107  0.707107  0.707107 )  
               b(2) = (  0.707107 -0.707107  0.707107 )  
               b(3) = (  0.707107  0.707107 -0.707107 )  


     PseudoPot. # 1 for Si read from file:
     /home/niel/git/DFT_Tutorial/qe_workshop_complete/pseudopotentials/PBE/Si.pbe-n-rrkjus_psl.1.0.0.UPF
     MD5 check sum: fa25574f73a70a4139f2adfbefec430c
     Pseudo is Ultrasoft + core correction, Zval =  4.0
     Generated using &quot;atomic&quot; code by A. Dal Corso  v.6.3
     Using radial grid of 1141 points,  6 beta functions with: 
                l(1) =   0
                l(2) =   0
                l(3) =   1
                l(4) =   1
                l(5) =   2
                l(6) =   2
     Q(r) pseudized with 0 coefficients 


     atomic species   valence    mass     pseudopotential
     Si                4.00    28.08500     Si( 1.00)

     48 Sym. Ops., with inversion, found (24 have fractional translation)



   Cartesian axes

     site n.     atom                  positions (alat units)
         1        Si     tau(   1) = (   0.0000000   0.0000000   0.0000000  )
         2        Si     tau(   2) = (   0.3535534   0.3535534   0.3535534  )

     number of k points=     8  Marzari-Vanderbilt smearing, width (Ry)=  0.0100
                       cart. coord. in units 2pi/alat
        k(    1) = (   0.0000000   0.0000000   0.0000000), wk =   0.0312500
        k(    2) = (   0.1767767   0.1767767  -0.1767767), wk =   0.2500000
        k(    3) = (  -0.3535534  -0.3535534   0.3535534), wk =   0.1250000
        k(    4) = (   0.3535534   0.0000000   0.0000000), wk =   0.1875000
        k(    5) = (  -0.1767767  -0.5303301   0.5303301), wk =   0.7500000
        k(    6) = (   0.0000000  -0.3535534   0.3535534), wk =   0.3750000
        k(    7) = (  -0.7071068   0.0000000   0.0000000), wk =   0.0937500
        k(    8) = (  -0.7071068   0.3535534   0.0000000), wk =   0.1875000

     Dense  grid:    16889 G-vectors     FFT dimensions: (  36,  36,  36)

     Smooth grid:     5985 G-vectors     FFT dimensions: (  32,  32,  32)

     Estimated max dynamical RAM per process >      16.37 MB

     Estimated total dynamical RAM >      65.50 MB

     Initial potential from superposition of free atoms

     starting charge       7.9989, renormalised to       8.0000
     Starting wfcs are    8 randomized atomic wfcs

     total cpu time spent up to now is        0.3 secs

     Self-consistent Calculation

     iteration #  1     ecut=    30.00 Ry     beta= 0.70
     Davidson diagonalization with overlap
     ethr =  1.00E-02,  avg # of iterations =  3.6

     Threshold (ethr) on eigenvalues was too large:
     Diagonalizing with lowered threshold

     Davidson diagonalization with overlap
     ethr =  7.20E-04,  avg # of iterations =  1.5

     total cpu time spent up to now is        1.2 secs

     total energy              =     -22.82296073 Ry
     estimated scf accuracy    <       0.06170625 Ry

     iteration #  2     ecut=    30.00 Ry     beta= 0.70
     Davidson diagonalization with overlap
     ethr =  7.71E-04,  avg # of iterations =  1.0

     total cpu time spent up to now is        1.5 secs

     WARNING: integrated charge=     8.00009470, expected=     8.00000000

     total energy              =     -22.82549222 Ry
     estimated scf accuracy    <       0.00250423 Ry

     iteration #  3     ecut=    30.00 Ry     beta= 0.70
     Davidson diagonalization with overlap
     ethr =  3.13E-05,  avg # of iterations =  3.6

     total cpu time spent up to now is        1.9 secs

     WARNING: integrated charge=     8.00017578, expected=     8.00000000

     total energy              =     -22.82566266 Ry
     estimated scf accuracy    <       0.00005375 Ry

     iteration #  4     ecut=    30.00 Ry     beta= 0.70
     Davidson diagonalization with overlap
     ethr =  6.72E-07,  avg # of iterations =  3.6

     total cpu time spent up to now is        2.2 secs

     End of self-consistent calculation

          k = 0.0000 0.0000 0.0000 (   749 PWs)   bands (ev):

    -5.7233   6.2502   6.2502   6.2502   8.7951   8.7951   8.7951   9.6169

          k = 0.1768 0.1768-0.1768 (   754 PWs)   bands (ev):

    -4.9229   2.3141   5.4857   5.4857   8.2710   9.7403   9.7404  13.1700

          k =-0.3536-0.3536 0.3536 (   754 PWs)   bands (ev):

    -3.3884  -0.7337   5.0456   5.0456   7.7811   9.5713   9.5714  13.9695

          k = 0.3536 0.0000 0.0000 (   729 PWs)   bands (ev):

    -4.6405   2.7303   4.3503   4.3503   7.3647   9.3681  12.0008  12.0008

          k =-0.1768-0.5303 0.5303 (   748 PWs)   bands (ev):

    -3.0022  -0.1413   2.7024   4.0348   7.7546  10.6895  11.9902  12.1578

          k = 0.0000-0.3536 0.3536 (   754 PWs)   bands (ev):

    -3.6774   0.7627   2.4823   4.9154   8.6855  11.0241  11.3845  12.3886

          k =-0.7071 0.0000 0.0000 (   740 PWs)   bands (ev):

    -1.5750  -1.5750   3.3857   3.3857   6.9437   6.9437  16.3479  16.3480

          k =-0.7071 0.3536 0.0000 (   744 PWs)   bands (ev):

    -1.4099  -1.4099   2.3812   2.3812  10.5130  10.5131  11.2405  11.2405

     the Fermi energy is     6.6747 ev

     WARNING: integrated charge=     8.00014979, expected=     8.00000000

!    total energy              =     -22.82568728 Ry
     estimated scf accuracy    <       0.00000015 Ry
     smearing contrib. (-TS)   =       0.00000117 Ry
     internal energy E=F+TS    =     -22.82568845 Ry

     The total energy is F=E-TS. E is the sum of the following terms:
     one-electron contribution =       5.17023272 Ry
     hartree contribution      =       1.12416918 Ry
     xc contribution           =     -12.32114661 Ry
     ewald contribution        =     -16.79894374 Ry

     convergence has been achieved in   4 iterations

     Forces acting on atoms (cartesian axes, Ry/au):

     atom    1 type  1   force =     0.00000000    0.00000000    0.00000000
     atom    2 type  1   force =     0.00000000    0.00000000   -0.00000000

     Total force =     0.000000     Total SCF correction =     0.000000

     Writing all to output data dir ./tmp/test_ecut_30.save/ :
     XML data file, charge density, pseudopotentials, collected wavefunctions
 
     init_run     :      0.53s CPU      0.20s WALL (       1 calls)
     electrons    :      6.06s CPU      2.00s WALL (       1 calls)
     forces       :      0.19s CPU      0.07s WALL (       1 calls)

     Called by init_run:
     wfcinit      :      0.19s CPU      0.07s WALL (       1 calls)
     potinit      :      0.06s CPU      0.02s WALL (       1 calls)
     hinit0       :      0.20s CPU      0.08s WALL (       1 calls)

     Called by electrons:
     c_bands      :      4.30s CPU      1.40s WALL (       5 calls)
     sum_band     :      1.17s CPU      0.39s WALL (       5 calls)
     v_of_rho     :      0.22s CPU      0.08s WALL (       5 calls)
     newd         :      0.32s CPU      0.11s WALL (       5 calls)
     mix_rho      :      0.02s CPU      0.01s WALL (       5 calls)

     Called by c_bands:
     init_us_2    :      0.11s CPU      0.04s WALL (      96 calls)
     cegterg      :      4.08s CPU      1.33s WALL (      40 calls)

     Called by *egterg:
     cdiaghg      :      0.03s CPU      0.01s WALL (     139 calls)
     h_psi        :      3.16s CPU      1.05s WALL (     155 calls)
     s_psi        :      0.01s CPU      0.00s WALL (     155 calls)
     g_psi        :      0.00s CPU      0.00s WALL (     107 calls)

     Called by h_psi:
     h_psi:calbec :      0.04s CPU      0.01s WALL (     155 calls)
     vloc_psi     :      3.02s CPU      1.01s WALL (     155 calls)
                                        0.00s GPU  (     155 calls)
     add_vuspsi   :      0.01s CPU      0.00s WALL (     155 calls)

     General routines
     calbec       :      0.12s CPU      0.04s WALL (     227 calls)
     fft          :      0.16s CPU      0.06s WALL (      75 calls)
     ffts         :      0.01s CPU      0.00s WALL (      10 calls)
     fftw         :      2.59s CPU      0.83s WALL (    2132 calls)
     interpolate  :      0.00s CPU      0.00s WALL (       5 calls)
 
     Parallel routines
 
     PWSCF        :      7.05s CPU      2.41s WALL

 
   This run was terminated on:  23:40:52   3Feb2026            

=------------------------------------------------------------------------------=
   JOB DONE.
=------------------------------------------------------------------------------=
