
     Program PWSCF v.7.5 starts on  3Feb2026 at 23:41:49 

     This program is part of the open-source Quantum ESPRESSO suite
     for quantum simulation of materials; please cite
         "P. Giannozzi et al., J. Phys.:Condens. Matter 21 395502 (2009);
         "P. Giannozzi et al., J. Phys.:Condens. Matter 29 465901 (2017);
         "P. Giannozzi et al., J. Chem. Phys. 152 154105 (2020);
          URL http://www.quantum-espresso.org", 
     in publications or presentations arising from this work. More details at
     http://www.quantum-espresso.org/quote

     Parallel version (MPI & OpenMP), running on      16 processor cores
     Number of MPI processes:                 4
     Threads/MPI process:                     4

     MPI processes distributed on     1 nodes
     1449 MiB available memory on the printing compute node when the environment starts
 
     Reading input from eos_2.in
Warning: card &CELL ignored
Warning: card &FCP ignored
Warning: card &RISM ignored

     Current dimensions of program PWSCF are:
     Max number of different atomic species (ntypx) = 10
     Max number of k-points (npk) =  40000
     Max angular momentum in pseudopotentials (lmaxx) =  4
     Message from routine setup:
     using ibrav=0 with symmetry is DISCOURAGED, use correct ibrav instead
 
     R & G space division:  proc/nbgrp/npool/nimage =       4
     Subspace diagonalization in iterative solution of the eigenvalue problem:
     a serial algorithm will be used

 
     Parallelization info
     --------------------
     sticks:   dense  smooth     PW     G-vecs:    dense   smooth      PW
     Min         289     145     46                 6555     2313     397
     Max         290     146     47                 6559     2316     398
     Sum        1159     583    187                26229     9257    1591
 
     Using Slab Decomposition
 


     bravais-lattice index     =            0
     lattice parameter (alat)  =       7.2558  a.u.
     unit-cell volume          =     270.1072 (a.u.)^3
     number of atoms/cell      =            2
     number of atomic types    =            1
     number of electrons       =         8.00
     number of Kohn-Sham states=            8
     kinetic-energy cutoff     =      40.0000  Ry
     charge density cutoff     =     320.0000  Ry
     scf convergence threshold =      1.0E-06
     mixing beta               =       0.7000
     number of iterations used =            8  plain     mixing
     Exchange-correlation= PBE
                           (   1   4   3   4   0   0   0)

     celldm(1)=   7.255773  celldm(2)=   0.000000  celldm(3)=   0.000000
     celldm(4)=   0.000000  celldm(5)=   0.000000  celldm(6)=   0.000000

     crystal axes: (cart. coord. in units of alat)
               a(1) = (   0.000000   0.707107   0.707107 )  
               a(2) = (   0.707107   0.000000   0.707107 )  
               a(3) = (   0.707107   0.707107   0.000000 )  

     reciprocal axes: (cart. coord. in units 2 pi/alat)
               b(1) = ( -0.707107  0.707107  0.707107 )  
               b(2) = (  0.707107 -0.707107  0.707107 )  
               b(3) = (  0.707107  0.707107 -0.707107 )  


     PseudoPot. # 1 for Si read from file:
     /home/niel/git/DFT_Tutorial/qe_workshop_complete/pseudopotentials/PBE/Si.pbe-n-rrkjus_psl.1.0.0.UPF
     MD5 check sum: fa25574f73a70a4139f2adfbefec430c
     Pseudo is Ultrasoft + core correction, Zval =  4.0
     Generated using &quot;atomic&quot; code by A. Dal Corso  v.6.3
     Using radial grid of 1141 points,  6 beta functions with: 
                l(1) =   0
                l(2) =   0
                l(3) =   1
                l(4) =   1
                l(5) =   2
                l(6) =   2
     Q(r) pseudized with 0 coefficients 


     atomic species   valence    mass     pseudopotential
     Si                4.00    28.08500     Si( 1.00)

     48 Sym. Ops., with inversion, found (24 have fractional translation)



   Cartesian axes

     site n.     atom                  positions (alat units)
         1        Si     tau(   1) = (   0.0000000   0.0000000   0.0000000  )
         2        Si     tau(   2) = (   0.3535534   0.3535534   0.3535534  )

     number of k points=     8  Marzari-Vanderbilt smearing, width (Ry)=  0.0100
                       cart. coord. in units 2pi/alat
        k(    1) = (   0.0000000   0.0000000   0.0000000), wk =   0.0312500
        k(    2) = (   0.1767767   0.1767767  -0.1767767), wk =   0.2500000
        k(    3) = (  -0.3535534  -0.3535534   0.3535534), wk =   0.1250000
        k(    4) = (   0.3535534   0.0000000   0.0000000), wk =   0.1875000
        k(    5) = (  -0.1767767  -0.5303301   0.5303301), wk =   0.7500000
        k(    6) = (   0.0000000  -0.3535534   0.3535534), wk =   0.3750000
        k(    7) = (  -0.7071068   0.0000000   0.0000000), wk =   0.0937500
        k(    8) = (  -0.7071068   0.3535534   0.0000000), wk =   0.1875000

     Dense  grid:    26229 G-vectors     FFT dimensions: (  48,  48,  48)

     Smooth grid:     9257 G-vectors     FFT dimensions: (  32,  32,  32)

     Estimated max dynamical RAM per process >      25.32 MB

     Estimated total dynamical RAM >     101.28 MB

     Initial potential from superposition of free atoms

     starting charge       7.9989, renormalised to       8.0000
     Starting wfcs are    8 randomized atomic wfcs

     total cpu time spent up to now is        0.4 secs

     Self-consistent Calculation

     iteration #  1     ecut=    40.00 Ry     beta= 0.70
     Davidson diagonalization with overlap
     ethr =  1.00E-02,  avg # of iterations =  3.5

     Threshold (ethr) on eigenvalues was too large:
     Diagonalizing with lowered threshold

     Davidson diagonalization with overlap
     ethr =  7.20E-04,  avg # of iterations =  1.5

     total cpu time spent up to now is        1.4 secs

     total energy              =     -22.82309505 Ry
     estimated scf accuracy    <       0.06168414 Ry

     iteration #  2     ecut=    40.00 Ry     beta= 0.70
     Davidson diagonalization with overlap
     ethr =  7.71E-04,  avg # of iterations =  1.0

     total cpu time spent up to now is        1.8 secs

     WARNING: integrated charge=     8.00008516, expected=     8.00000000

     total energy              =     -22.82563361 Ry
     estimated scf accuracy    <       0.00251049 Ry

     iteration #  3     ecut=    40.00 Ry     beta= 0.70
     Davidson diagonalization with overlap
     ethr =  3.14E-05,  avg # of iterations =  3.8

     total cpu time spent up to now is        2.2 secs

     WARNING: integrated charge=     8.00017487, expected=     8.00000000

     total energy              =     -22.82579261 Ry
     estimated scf accuracy    <       0.00005337 Ry

     iteration #  4     ecut=    40.00 Ry     beta= 0.70
     Davidson diagonalization with overlap
     ethr =  6.67E-07,  avg # of iterations =  2.9

     total cpu time spent up to now is        2.6 secs

     End of self-consistent calculation

          k = 0.0000 0.0000 0.0000 (  1139 PWs)   bands (ev):

    -5.7238   6.2495   6.2495   6.2495   8.7945   8.7945   8.7945   9.6165

          k = 0.1768 0.1768-0.1768 (  1152 PWs)   bands (ev):

    -4.9234   2.3137   5.4852   5.4852   8.2704   9.7397   9.7398  13.1695

          k =-0.3536-0.3536 0.3536 (  1158 PWs)   bands (ev):

    -3.3888  -0.7341   5.0452   5.0452   7.7807   9.5708   9.5709  13.9692

          k = 0.3536 0.0000 0.0000 (  1174 PWs)   bands (ev):

    -4.6410   2.7298   4.3499   4.3499   7.3641   9.3674  11.9998  11.9999

          k =-0.1768-0.5303 0.5303 (  1150 PWs)   bands (ev):

    -3.0027  -0.1417   2.7021   4.0344   7.7542  10.6889  11.9897  12.1571

          k = 0.0000-0.3536 0.3536 (  1159 PWs)   bands (ev):

    -3.6779   0.7622   2.4820   4.9149   8.6849  11.0234  11.3837  12.3881

          k =-0.7071 0.0000 0.0000 (  1162 PWs)   bands (ev):

    -1.5754  -1.5754   3.3853   3.3853   6.9432   6.9432  16.3472  16.3473

          k =-0.7071 0.3536 0.0000 (  1144 PWs)   bands (ev):

    -1.4104  -1.4104   2.3810   2.3810  10.5123  10.5123  11.2399  11.2399

     the Fermi energy is     6.6742 ev

     WARNING: integrated charge=     8.00014933, expected=     8.00000000

!    total energy              =     -22.82581806 Ry
     estimated scf accuracy    <       0.00000013 Ry
     smearing contrib. (-TS)   =       0.00000117 Ry
     internal energy E=F+TS    =     -22.82581923 Ry

     The total energy is F=E-TS. E is the sum of the following terms:
     one-electron contribution =       5.17018623 Ry
     hartree contribution      =       1.12419726 Ry
     xc contribution           =     -12.32125899 Ry
     ewald contribution        =     -16.79894373 Ry

     convergence has been achieved in   4 iterations

     Writing all to output data dir ./tmp/eos_2.save/ :
     XML data file, charge density, pseudopotentials, collected wavefunctions
 
     init_run     :      0.97s CPU      0.36s WALL (       1 calls)
     electrons    :      6.00s CPU      2.15s WALL (       1 calls)

     Called by init_run:
     wfcinit      :      0.47s CPU      0.17s WALL (       1 calls)
     potinit      :      0.14s CPU      0.04s WALL (       1 calls)
     hinit0       :      0.25s CPU      0.10s WALL (       1 calls)

     Called by electrons:
     c_bands      :      4.30s CPU      1.56s WALL (       5 calls)
     sum_band     :      1.07s CPU      0.38s WALL (       5 calls)
     v_of_rho     :      0.34s CPU      0.12s WALL (       5 calls)
     newd         :      0.40s CPU      0.13s WALL (       5 calls)
     mix_rho      :      0.01s CPU      0.00s WALL (       5 calls)

     Called by c_bands:
     init_us_2    :      0.13s CPU      0.05s WALL (      88 calls)
     cegterg      :      4.04s CPU      1.48s WALL (      40 calls)

     Called by *egterg:
     cdiaghg      :      0.05s CPU      0.02s WALL (     133 calls)
     h_psi        :      3.26s CPU      1.19s WALL (     149 calls)
     s_psi        :      0.03s CPU      0.01s WALL (     149 calls)
     g_psi        :      0.00s CPU      0.00s WALL (     101 calls)

     Called by h_psi:
     h_psi:calbec :      0.07s CPU      0.03s WALL (     149 calls)
     vloc_psi     :      3.03s CPU      1.10s WALL (     149 calls)
                                        0.00s GPU  (     149 calls)
     add_vuspsi   :      0.04s CPU      0.01s WALL (     149 calls)

     General routines
     calbec       :      0.08s CPU      0.03s WALL (     189 calls)
     fft          :      0.19s CPU      0.06s WALL (      64 calls)
     ffts         :      0.00s CPU      0.00s WALL (      10 calls)
     fftw         :      2.29s CPU      0.78s WALL (    2110 calls)
     interpolate  :      0.01s CPU      0.00s WALL (       5 calls)
 
     Parallel routines
 
     PWSCF        :      7.10s CPU      2.60s WALL

 
   This run was terminated on:  23:41:52   3Feb2026            

=------------------------------------------------------------------------------=
   JOB DONE.
=------------------------------------------------------------------------------=
