
     Program PWSCF v.7.5 starts on  3Feb2026 at 23:41:43 

     This program is part of the open-source Quantum ESPRESSO suite
     for quantum simulation of materials; please cite
         "P. Giannozzi et al., J. Phys.:Condens. Matter 21 395502 (2009);
         "P. Giannozzi et al., J. Phys.:Condens. Matter 29 465901 (2017);
         "P. Giannozzi et al., J. Chem. Phys. 152 154105 (2020);
          URL http://www.quantum-espresso.org", 
     in publications or presentations arising from this work. More details at
     http://www.quantum-espresso.org/quote

     Parallel version (MPI & OpenMP), running on      16 processor cores
     Number of MPI processes:                 4
     Threads/MPI process:                     4

     MPI processes distributed on     1 nodes
     1436 MiB available memory on the printing compute node when the environment starts
 
     Reading input from eos_1.in
Warning: card &CELL ignored
Warning: card &FCP ignored
Warning: card &RISM ignored

     Current dimensions of program PWSCF are:
     Max number of different atomic species (ntypx) = 10
     Max number of k-points (npk) =  40000
     Max angular momentum in pseudopotentials (lmaxx) =  4
     Message from routine setup:
     using ibrav=0 with symmetry is DISCOURAGED, use correct ibrav instead
 
     R & G space division:  proc/nbgrp/npool/nimage =       4
     Subspace diagonalization in iterative solution of the eigenvalue problem:
     a serial algorithm will be used

 
     Parallelization info
     --------------------
     sticks:   dense  smooth     PW     G-vecs:    dense   smooth      PW
     Min         286     142     42                 6376     2218     367
     Max         287     144     43                 6378     2219     368
     Sum        1147     571    169                25509     8873    1471
 
     Using Slab Decomposition
 


     bravais-lattice index     =            0
     lattice parameter (alat)  =       7.1832  a.u.
     unit-cell volume          =     262.0847 (a.u.)^3
     number of atoms/cell      =            2
     number of atomic types    =            1
     number of electrons       =         8.00
     number of Kohn-Sham states=            8
     kinetic-energy cutoff     =      40.0000  Ry
     charge density cutoff     =     320.0000  Ry
     scf convergence threshold =      1.0E-06
     mixing beta               =       0.7000
     number of iterations used =            8  plain     mixing
     Exchange-correlation= PBE
                           (   1   4   3   4   0   0   0)

     celldm(1)=   7.183215  celldm(2)=   0.000000  celldm(3)=   0.000000
     celldm(4)=   0.000000  celldm(5)=   0.000000  celldm(6)=   0.000000

     crystal axes: (cart. coord. in units of alat)
               a(1) = (   0.000000   0.707107   0.707107 )  
               a(2) = (   0.707107   0.000000   0.707107 )  
               a(3) = (   0.707107   0.707107   0.000000 )  

     reciprocal axes: (cart. coord. in units 2 pi/alat)
               b(1) = ( -0.707107  0.707107  0.707107 )  
               b(2) = (  0.707107 -0.707107  0.707107 )  
               b(3) = (  0.707107  0.707107 -0.707107 )  


     PseudoPot. # 1 for Si read from file:
     /home/niel/git/DFT_Tutorial/qe_workshop_complete/pseudopotentials/PBE/Si.pbe-n-rrkjus_psl.1.0.0.UPF
     MD5 check sum: fa25574f73a70a4139f2adfbefec430c
     Pseudo is Ultrasoft + core correction, Zval =  4.0
     Generated using &quot;atomic&quot; code by A. Dal Corso  v.6.3
     Using radial grid of 1141 points,  6 beta functions with: 
                l(1) =   0
                l(2) =   0
                l(3) =   1
                l(4) =   1
                l(5) =   2
                l(6) =   2
     Q(r) pseudized with 0 coefficients 


     atomic species   valence    mass     pseudopotential
     Si                4.00    28.08500     Si( 1.00)

     48 Sym. Ops., with inversion, found (24 have fractional translation)



   Cartesian axes

     site n.     atom                  positions (alat units)
         1        Si     tau(   1) = (   0.0000000   0.0000000   0.0000000  )
         2        Si     tau(   2) = (   0.3535534   0.3535534   0.3535534  )

     number of k points=     8  Marzari-Vanderbilt smearing, width (Ry)=  0.0100
                       cart. coord. in units 2pi/alat
        k(    1) = (   0.0000000   0.0000000   0.0000000), wk =   0.0312500
        k(    2) = (   0.1767767   0.1767767  -0.1767767), wk =   0.2500000
        k(    3) = (  -0.3535534  -0.3535534   0.3535534), wk =   0.1250000
        k(    4) = (   0.3535534   0.0000000   0.0000000), wk =   0.1875000
        k(    5) = (  -0.1767767  -0.5303301   0.5303301), wk =   0.7500000
        k(    6) = (   0.0000000  -0.3535534   0.3535534), wk =   0.3750000
        k(    7) = (  -0.7071068   0.0000000   0.0000000), wk =   0.0937500
        k(    8) = (  -0.7071068   0.3535534   0.0000000), wk =   0.1875000

     Dense  grid:    25509 G-vectors     FFT dimensions: (  48,  48,  48)

     Smooth grid:     8873 G-vectors     FFT dimensions: (  32,  32,  32)

     Estimated max dynamical RAM per process >      24.71 MB

     Estimated total dynamical RAM >      98.83 MB

     Initial potential from superposition of free atoms

     starting charge       7.9989, renormalised to       8.0000
     Starting wfcs are    8 randomized atomic wfcs

     total cpu time spent up to now is        0.3 secs

     Self-consistent Calculation

     iteration #  1     ecut=    40.00 Ry     beta= 0.70
     Davidson diagonalization with overlap
     ethr =  1.00E-02,  avg # of iterations =  3.8

     Threshold (ethr) on eigenvalues was too large:
     Diagonalizing with lowered threshold

     Davidson diagonalization with overlap
     ethr =  7.56E-04,  avg # of iterations =  1.4

     total cpu time spent up to now is        1.1 secs

     total energy              =     -22.82047525 Ry
     estimated scf accuracy    <       0.06473287 Ry

     iteration #  2     ecut=    40.00 Ry     beta= 0.70
     Davidson diagonalization with overlap
     ethr =  8.09E-04,  avg # of iterations =  1.0

     total cpu time spent up to now is        1.4 secs

     WARNING: integrated charge=     8.00028830, expected=     8.00000000

     total energy              =     -22.82318586 Ry
     estimated scf accuracy    <       0.00248257 Ry

     iteration #  3     ecut=    40.00 Ry     beta= 0.70
     Davidson diagonalization with overlap
     ethr =  3.10E-05,  avg # of iterations =  3.6

     total cpu time spent up to now is        1.7 secs

     WARNING: integrated charge=     8.00052343, expected=     8.00000000

     total energy              =     -22.82329452 Ry
     estimated scf accuracy    <       0.00005723 Ry

     iteration #  4     ecut=    40.00 Ry     beta= 0.70
     Davidson diagonalization with overlap
     ethr =  7.15E-07,  avg # of iterations =  3.6

     total cpu time spent up to now is        2.3 secs

     End of self-consistent calculation

          k = 0.0000 0.0000 0.0000 (  1139 PWs)   bands (ev):

    -5.6141   6.5707   6.5707   6.5707   9.1263   9.1263   9.1263  10.2874

          k = 0.1768 0.1768-0.1768 (  1116 PWs)   bands (ev):

    -4.7920   2.5758   5.7864   5.7864   8.6936  10.0835  10.0836  13.7407

          k =-0.3536-0.3536 0.3536 (  1104 PWs)   bands (ev):

    -3.2013  -0.5594   5.3393   5.3393   8.2079   9.8758   9.8758  14.3261

          k = 0.3536 0.0000 0.0000 (  1118 PWs)   bands (ev):

    -4.5028   3.0550   4.6130   4.6130   7.6542   9.6766  12.4195  12.4195

          k =-0.1768-0.5303 0.5303 (  1116 PWs)   bands (ev):

    -2.8136   0.0945   2.9223   4.2923   8.0408  11.0292  12.4600  12.5375

          k = 0.0000-0.3536 0.3536 (  1125 PWs)   bands (ev):

    -3.5100   1.0257   2.6841   5.2011   9.0204  11.4049  11.7743  12.8687

          k =-0.7071 0.0000 0.0000 (  1106 PWs)   bands (ev):

    -1.3546  -1.3546   3.6251   3.6251   7.2015   7.2015  16.9286  16.9287

          k =-0.7071 0.3536 0.0000 (  1124 PWs)   bands (ev):

    -1.1753  -1.1753   2.5706   2.5706  10.8294  10.8294  11.6648  11.6648

     the Fermi energy is     6.9606 ev

     WARNING: integrated charge=     8.00045252, expected=     8.00000000

!    total energy              =     -22.82334912 Ry
     estimated scf accuracy    <       0.00000019 Ry
     smearing contrib. (-TS)   =       0.00000365 Ry
     internal energy E=F+TS    =     -22.82335276 Ry

     The total energy is F=E-TS. E is the sum of the following terms:
     one-electron contribution =       5.40629121 Ry
     hartree contribution      =       1.09794780 Ry
     xc contribution           =     -12.35896174 Ry
     ewald contribution        =     -16.96863003 Ry

     convergence has been achieved in   4 iterations

     Writing all to output data dir ./tmp/eos_1.save/ :
     XML data file, charge density, pseudopotentials, collected wavefunctions
 
     init_run     :      0.62s CPU      0.27s WALL (       1 calls)
     electrons    :      6.22s CPU      1.97s WALL (       1 calls)

     Called by init_run:
     wfcinit      :      0.12s CPU      0.05s WALL (       1 calls)
     potinit      :      0.11s CPU      0.05s WALL (       1 calls)
     hinit0       :      0.30s CPU      0.11s WALL (       1 calls)

     Called by electrons:
     c_bands      :      4.02s CPU      1.33s WALL (       5 calls)
     sum_band     :      1.20s CPU      0.36s WALL (       5 calls)
     v_of_rho     :      0.25s CPU      0.08s WALL (       5 calls)
     newd         :      0.53s CPU      0.16s WALL (       5 calls)
     mix_rho      :      0.02s CPU      0.00s WALL (       5 calls)

     Called by c_bands:
     init_us_2    :      0.06s CPU      0.03s WALL (      88 calls)
     cegterg      :      3.74s CPU      1.25s WALL (      40 calls)

     Called by *egterg:
     cdiaghg      :      0.04s CPU      0.01s WALL (     139 calls)
     h_psi        :      2.67s CPU      0.91s WALL (     155 calls)
     s_psi        :      0.01s CPU      0.00s WALL (     155 calls)
     g_psi        :      0.00s CPU      0.00s WALL (     107 calls)

     Called by h_psi:
     h_psi:calbec :      0.05s CPU      0.01s WALL (     155 calls)
     vloc_psi     :      2.54s CPU      0.87s WALL (     155 calls)
                                        0.00s GPU  (     155 calls)
     add_vuspsi   :      0.02s CPU      0.00s WALL (     155 calls)

     General routines
     calbec       :      0.08s CPU      0.02s WALL (     195 calls)
     fft          :      0.21s CPU      0.06s WALL (      64 calls)
     ffts         :      0.01s CPU      0.00s WALL (      10 calls)
     fftw         :      2.78s CPU      0.90s WALL (    2122 calls)
     interpolate  :      0.02s CPU      0.01s WALL (       5 calls)
 
     Parallel routines
 
     PWSCF        :      6.96s CPU      2.31s WALL

 
   This run was terminated on:  23:41:45   3Feb2026            

=------------------------------------------------------------------------------=
   JOB DONE.
=------------------------------------------------------------------------------=
