
     Program PWSCF v.7.5 starts on  3Feb2026 at 23:42: 2 

     This program is part of the open-source Quantum ESPRESSO suite
     for quantum simulation of materials; please cite
         "P. Giannozzi et al., J. Phys.:Condens. Matter 21 395502 (2009);
         "P. Giannozzi et al., J. Phys.:Condens. Matter 29 465901 (2017);
         "P. Giannozzi et al., J. Chem. Phys. 152 154105 (2020);
          URL http://www.quantum-espresso.org", 
     in publications or presentations arising from this work. More details at
     http://www.quantum-espresso.org/quote

     Parallel version (MPI & OpenMP), running on      16 processor cores
     Number of MPI processes:                 4
     Threads/MPI process:                     4

     MPI processes distributed on     1 nodes
     1440 MiB available memory on the printing compute node when the environment starts
 
     Reading input from eos_4.in
Warning: card &CELL ignored
Warning: card &FCP ignored
Warning: card &RISM ignored

     Current dimensions of program PWSCF are:
     Max number of different atomic species (ntypx) = 10
     Max number of k-points (npk) =  40000
     Max angular momentum in pseudopotentials (lmaxx) =  4
     Message from routine setup:
     using ibrav=0 with symmetry is DISCOURAGED, use correct ibrav instead
 
     R & G space division:  proc/nbgrp/npool/nimage =       4
     Subspace diagonalization in iterative solution of the eigenvalue problem:
     a serial algorithm will be used

 
     Parallelization info
     --------------------
     sticks:   dense  smooth     PW     G-vecs:    dense   smooth      PW
     Min         300     148     46                 6895     2458     409
     Max         301     149     47                 6896     2462     411
     Sum        1201     595    187                27581     9841    1639
 
     Using Slab Decomposition
 


     bravais-lattice index     =            0
     lattice parameter (alat)  =       7.4009  a.u.
     unit-cell volume          =     286.6399 (a.u.)^3
     number of atoms/cell      =            2
     number of atomic types    =            1
     number of electrons       =         8.00
     number of Kohn-Sham states=            8
     kinetic-energy cutoff     =      40.0000  Ry
     charge density cutoff     =     320.0000  Ry
     scf convergence threshold =      1.0E-06
     mixing beta               =       0.7000
     number of iterations used =            8  plain     mixing
     Exchange-correlation= PBE
                           (   1   4   3   4   0   0   0)

     celldm(1)=   7.400889  celldm(2)=   0.000000  celldm(3)=   0.000000
     celldm(4)=   0.000000  celldm(5)=   0.000000  celldm(6)=   0.000000

     crystal axes: (cart. coord. in units of alat)
               a(1) = (   0.000000   0.707107   0.707107 )  
               a(2) = (   0.707107   0.000000   0.707107 )  
               a(3) = (   0.707107   0.707107   0.000000 )  

     reciprocal axes: (cart. coord. in units 2 pi/alat)
               b(1) = ( -0.707107  0.707107  0.707107 )  
               b(2) = (  0.707107 -0.707107  0.707107 )  
               b(3) = (  0.707107  0.707107 -0.707107 )  


     PseudoPot. # 1 for Si read from file:
     /home/niel/git/DFT_Tutorial/qe_workshop_complete/pseudopotentials/PBE/Si.pbe-n-rrkjus_psl.1.0.0.UPF
     MD5 check sum: fa25574f73a70a4139f2adfbefec430c
     Pseudo is Ultrasoft + core correction, Zval =  4.0
     Generated using &quot;atomic&quot; code by A. Dal Corso  v.6.3
     Using radial grid of 1141 points,  6 beta functions with: 
                l(1) =   0
                l(2) =   0
                l(3) =   1
                l(4) =   1
                l(5) =   2
                l(6) =   2
     Q(r) pseudized with 0 coefficients 


     atomic species   valence    mass     pseudopotential
     Si                4.00    28.08500     Si( 1.00)

     48 Sym. Ops., with inversion, found (24 have fractional translation)



   Cartesian axes

     site n.     atom                  positions (alat units)
         1        Si     tau(   1) = (   0.0000000   0.0000000   0.0000000  )
         2        Si     tau(   2) = (   0.3535534   0.3535534   0.3535534  )

     number of k points=     8  Marzari-Vanderbilt smearing, width (Ry)=  0.0100
                       cart. coord. in units 2pi/alat
        k(    1) = (   0.0000000   0.0000000   0.0000000), wk =   0.0312500
        k(    2) = (   0.1767767   0.1767767  -0.1767767), wk =   0.2500000
        k(    3) = (  -0.3535534  -0.3535534   0.3535534), wk =   0.1250000
        k(    4) = (   0.3535534   0.0000000   0.0000000), wk =   0.1875000
        k(    5) = (  -0.1767767  -0.5303301   0.5303301), wk =   0.7500000
        k(    6) = (   0.0000000  -0.3535534   0.3535534), wk =   0.3750000
        k(    7) = (  -0.7071068   0.0000000   0.0000000), wk =   0.0937500
        k(    8) = (  -0.7071068   0.3535534   0.0000000), wk =   0.1875000

     Dense  grid:    27581 G-vectors     FFT dimensions: (  48,  48,  48)

     Smooth grid:     9841 G-vectors     FFT dimensions: (  32,  32,  32)

     Estimated max dynamical RAM per process >      26.45 MB

     Estimated total dynamical RAM >     105.80 MB

     Initial potential from superposition of free atoms

     starting charge       7.9989, renormalised to       8.0000
     Starting wfcs are    8 randomized atomic wfcs

     total cpu time spent up to now is        0.4 secs

     Self-consistent Calculation

     iteration #  1     ecut=    40.00 Ry     beta= 0.70
     Davidson diagonalization with overlap
     ethr =  1.00E-02,  avg # of iterations =  3.6

     Threshold (ethr) on eigenvalues was too large:
     Diagonalizing with lowered threshold

     Davidson diagonalization with overlap
     ethr =  6.50E-04,  avg # of iterations =  1.8

     total cpu time spent up to now is        1.1 secs

     total energy              =     -22.82354459 Ry
     estimated scf accuracy    <       0.05609492 Ry

     iteration #  2     ecut=    40.00 Ry     beta= 0.70
     Davidson diagonalization with overlap
     ethr =  7.01E-04,  avg # of iterations =  1.0

     total cpu time spent up to now is        1.5 secs

     WARNING: integrated charge=     8.00000973, expected=     8.00000000

     total energy              =     -22.82558946 Ry
     estimated scf accuracy    <       0.00253829 Ry

     iteration #  3     ecut=    40.00 Ry     beta= 0.70
     Davidson diagonalization with overlap
     ethr =  3.17E-05,  avg # of iterations =  3.6

     total cpu time spent up to now is        1.8 secs

     WARNING: integrated charge=     8.00001848, expected=     8.00000000

     total energy              =     -22.82574362 Ry
     estimated scf accuracy    <       0.00004510 Ry

     iteration #  4     ecut=    40.00 Ry     beta= 0.70
     Davidson diagonalization with overlap
     ethr =  5.64E-07,  avg # of iterations =  3.4

     total cpu time spent up to now is        2.2 secs

     End of self-consistent calculation

          k = 0.0000 0.0000 0.0000 (  1243 PWs)   bands (ev):

    -5.9300   5.6432   5.6432   5.6432   8.1631   8.1631   8.1631   8.3421

          k = 0.1768 0.1768-0.1768 (  1227 PWs)   bands (ev):

    -5.1713   1.8108   4.9173   4.9173   7.4566   9.0832   9.0833  12.0834

          k =-0.3536-0.3536 0.3536 (  1224 PWs)   bands (ev):

    -3.7419  -1.0700   4.4917   4.4917   6.9665   8.9862   8.9863  13.2834

          k = 0.3536 0.0000 0.0000 (  1243 PWs)   bands (ev):

    -4.9019   2.1097   3.8538   3.8538   6.8125   8.7542  11.1998  11.1998

          k =-0.1768-0.5303 0.5303 (  1225 PWs)   bands (ev):

    -3.3602  -0.5940   2.2896   3.5486   7.2024  10.0282  11.1056  11.4269

          k = 0.0000-0.3536 0.3536 (  1211 PWs)   bands (ev):

    -3.9954   0.2596   2.1017   4.3758   8.0335  10.2952  10.6363  11.4782

          k =-0.7071 0.0000 0.0000 (  1234 PWs)   bands (ev):

    -1.9946  -1.9946   2.9342   2.9342   6.4492   6.4493  15.2392  15.2392

          k =-0.7071 0.3536 0.0000 (  1216 PWs)   bands (ev):

    -1.8548  -1.8548   2.0221   2.0221   9.9098   9.9098  10.4218  10.4219

     the Fermi energy is     6.1280 ev

     WARNING: integrated charge=     8.00001563, expected=     8.00000000

!    total energy              =     -22.82575809 Ry
     estimated scf accuracy    <       0.00000012 Ry
     smearing contrib. (-TS)   =       0.00000012 Ry
     internal energy E=F+TS    =     -22.82575821 Ry

     The total energy is F=E-TS. E is the sum of the following terms:
     one-electron contribution =       4.71673052 Ry
     hartree contribution      =       1.17671532 Ry
     xc contribution           =     -12.24965137 Ry
     ewald contribution        =     -16.46955268 Ry

     convergence has been achieved in   4 iterations

     Writing all to output data dir ./tmp/eos_4.save/ :
     XML data file, charge density, pseudopotentials, collected wavefunctions
 
     init_run     :      1.20s CPU      0.37s WALL (       1 calls)
     electrons    :      5.23s CPU      1.74s WALL (       1 calls)

     Called by init_run:
     wfcinit      :      0.64s CPU      0.19s WALL (       1 calls)
     potinit      :      0.07s CPU      0.02s WALL (       1 calls)
     hinit0       :      0.39s CPU      0.11s WALL (       1 calls)

     Called by electrons:
     c_bands      :      3.62s CPU      1.21s WALL (       5 calls)
     sum_band     :      1.06s CPU      0.37s WALL (       5 calls)
     v_of_rho     :      0.19s CPU      0.06s WALL (       5 calls)
     newd         :      0.42s CPU      0.13s WALL (       5 calls)
     mix_rho      :      0.01s CPU      0.00s WALL (       5 calls)

     Called by c_bands:
     init_us_2    :      0.08s CPU      0.03s WALL (      88 calls)
     cegterg      :      3.44s CPU      1.16s WALL (      40 calls)

     Called by *egterg:
     cdiaghg      :      0.04s CPU      0.01s WALL (     139 calls)
     h_psi        :      3.32s CPU      1.10s WALL (     155 calls)
     s_psi        :      0.01s CPU      0.00s WALL (     155 calls)
     g_psi        :      0.00s CPU      0.00s WALL (     107 calls)

     Called by h_psi:
     h_psi:calbec :      0.03s CPU      0.01s WALL (     155 calls)
     vloc_psi     :      3.24s CPU      1.07s WALL (     155 calls)
                                        0.00s GPU  (     155 calls)
     add_vuspsi   :      0.02s CPU      0.00s WALL (     155 calls)

     General routines
     calbec       :      0.05s CPU      0.01s WALL (     195 calls)
     fft          :      0.11s CPU      0.04s WALL (      64 calls)
     ffts         :      0.01s CPU      0.00s WALL (      10 calls)
     fftw         :      2.98s CPU      0.96s WALL (    2112 calls)
     interpolate  :      0.01s CPU      0.00s WALL (       5 calls)
 
     Parallel routines
 
     PWSCF        :      6.54s CPU      2.18s WALL

 
   This run was terminated on:  23:42: 4   3Feb2026            

=------------------------------------------------------------------------------=
   JOB DONE.
=------------------------------------------------------------------------------=
