
     Program PWSCF v.7.5 starts on  8Feb2026 at 23:16:57 

     This program is part of the open-source Quantum ESPRESSO suite
     for quantum simulation of materials; please cite
         "P. Giannozzi et al., J. Phys.:Condens. Matter 21 395502 (2009);
         "P. Giannozzi et al., J. Phys.:Condens. Matter 29 465901 (2017);
         "P. Giannozzi et al., J. Chem. Phys. 152 154105 (2020);
          URL http://www.quantum-espresso.org", 
     in publications or presentations arising from this work. More details at
     http://www.quantum-espresso.org/quote

     Parallel version (MPI & OpenMP), running on      16 processor cores
     Number of MPI processes:                 1
     Threads/MPI process:                    16

     MPI processes distributed on     1 nodes
     1809 MiB available memory on the printing compute node when the environment starts
 

     Program PWSCF v.7.5 starts on  8Feb2026 at 23:16:57 

     This program is part of the open-source Quantum ESPRESSO suite
     for quantum simulation of materials; please cite
         "P. Giannozzi et al., J. Phys.:Condens. Matter 21 395502 (2009);
         "P. Giannozzi et al., J. Phys.:Condens. Matter 29 465901 (2017);
         "P. Giannozzi et al., J. Chem. Phys. 152 154105 (2020);
          URL http://www.quantum-espresso.org", 
     in publications or presentations arising from this work. More details at
     http://www.quantum-espresso.org/quote

     Parallel version (MPI & OpenMP), running on      16 processor cores
     Number of MPI processes:                 1
     Threads/MPI process:                    16

     MPI processes distributed on     1 nodes
     1809 MiB available memory on the printing compute node when the environment starts
 
     Reading input from test.in
     Reading input from test.in

     Current dimensions of program PWSCF are:
     Max number of different atomic species (ntypx) = 10
     Max number of k-points (npk) =  40000
     Max angular momentum in pseudopotentials (lmaxx) =  4

     Current dimensions of program PWSCF are:
     Max number of different atomic species (ntypx) = 10
     Max number of k-points (npk) =  40000
     Max angular momentum in pseudopotentials (lmaxx) =  4
     Message from routine setup:
     using ibrav=0 with symmetry is DISCOURAGED, use correct ibrav instead
 
     Subspace diagonalization in iterative solution of the eigenvalue problem:
     a serial algorithm will be used

 
     G-vector sticks info
     --------------------
     sticks:   dense  smooth     PW     G-vecs:    dense   smooth      PW
     Sum         637     583    187                10489     9257    1639
 
     Using Slab Decomposition
 


     bravais-lattice index     =            0
     lattice parameter (alat)  =       7.2558  a.u.
     unit-cell volume          =     270.1072 (a.u.)^3
     number of atoms/cell      =            2
     number of atomic types    =            1
     number of electrons       =         8.00
     number of Kohn-Sham states=            4
     kinetic-energy cutoff     =      40.0000  Ry
     charge density cutoff     =     175.0000  Ry
     scf convergence threshold =      1.0E-06
     mixing beta               =       0.7000
     number of iterations used =            8  plain     mixing
     Exchange-correlation= PBE
                           (   1   4   3   4   0   0   0)

     celldm(1)=   7.255773  celldm(2)=   0.000000  celldm(3)=   0.000000
     celldm(4)=   0.000000  celldm(5)=   0.000000  celldm(6)=   0.000000

     crystal axes: (cart. coord. in units of alat)
               a(1) = (   0.000000   0.707107   0.707107 )  
               a(2) = (   0.707107   0.000000   0.707107 )  
               a(3) = (   0.707107   0.707107   0.000000 )  

     reciprocal axes: (cart. coord. in units 2 pi/alat)
               b(1) = ( -0.707107  0.707107  0.707107 )  
               b(2) = (  0.707107 -0.707107  0.707107 )  
               b(3) = (  0.707107  0.707107 -0.707107 )  


     PseudoPot. # 1 for Si read from file:
     /home/niel/git/DFT_Tutorial/qe_workshop_complete/pseudopotentials/PBE/Si.pbe-n-rrkjus_psl.1.0.0.UPF
     MD5 check sum: fa25574f73a70a4139f2adfbefec430c
     Pseudo is Ultrasoft + core correction, Zval =  4.0
     Generated using &quot;atomic&quot; code by A. Dal Corso  v.6.3
     Using radial grid of 1141 points,  6 beta functions with: 
                l(1) =   0
                l(2) =   0
                l(3) =   1
                l(4) =   1
                l(5) =   2
                l(6) =   2
     Q(r) pseudized with 0 coefficients 


     atomic species   valence    mass     pseudopotential
     Si                4.00    28.08500     Si( 1.00)

     48 Sym. Ops., with inversion, found (24 have fractional translation)



   Cartesian axes

     site n.     atom                  positions (alat units)
         1        Si     tau(   1) = (   0.0000000   0.0000000   0.0000000  )
         2        Si     tau(   2) = (   0.3535534   0.3535534   0.3535534  )

     number of k points=    10
                       cart. coord. in units 2pi/alat
        k(    1) = (   0.0883883   0.0883883   0.0883883), wk =   0.0625000
        k(    2) = (   0.2651650   0.2651650  -0.0883883), wk =   0.1875000
        k(    3) = (  -0.2651650  -0.2651650   0.4419417), wk =   0.1875000
        k(    4) = (  -0.0883883  -0.0883883   0.2651650), wk =   0.1875000
        k(    5) = (   0.4419417   0.0883883   0.0883883), wk =   0.1875000
        k(    6) = (  -0.0883883  -0.4419417   0.6187184), wk =   0.3750000
        k(    7) = (   0.0883883  -0.2651650   0.4419417), wk =   0.3750000
        k(    8) = (  -0.6187184   0.0883883   0.0883883), wk =   0.1875000
        k(    9) = (   0.2651650   0.2651650   0.2651650), wk =   0.0625000
        k(   10) = (  -0.2651650  -0.2651650   0.7954951), wk =   0.1875000

     Dense  grid:    10489 G-vectors     FFT dimensions: (  32,  32,  32)

     Smooth grid:     9257 G-vectors     FFT dimensions: (  32,  32,  32)

     Estimated max dynamical RAM per process >      39.57 MB
     Message from routine setup:
     using ibrav=0 with symmetry is DISCOURAGED, use correct ibrav instead
 
     Subspace diagonalization in iterative solution of the eigenvalue problem:
     a serial algorithm will be used

 
     G-vector sticks info
     --------------------
     sticks:   dense  smooth     PW     G-vecs:    dense   smooth      PW
     Sum         637     583    187                10489     9257    1639
 
     Using Slab Decomposition
 


     bravais-lattice index     =            0
     lattice parameter (alat)  =       7.2558  a.u.
     unit-cell volume          =     270.1072 (a.u.)^3
     number of atoms/cell      =            2
     number of atomic types    =            1
     number of electrons       =         8.00
     number of Kohn-Sham states=            4
     kinetic-energy cutoff     =      40.0000  Ry
     charge density cutoff     =     175.0000  Ry
     scf convergence threshold =      1.0E-06
     mixing beta               =       0.7000
     number of iterations used =            8  plain     mixing
     Exchange-correlation= PBE
                           (   1   4   3   4   0   0   0)

     celldm(1)=   7.255773  celldm(2)=   0.000000  celldm(3)=   0.000000
     celldm(4)=   0.000000  celldm(5)=   0.000000  celldm(6)=   0.000000

     crystal axes: (cart. coord. in units of alat)
               a(1) = (   0.000000   0.707107   0.707107 )  
               a(2) = (   0.707107   0.000000   0.707107 )  
               a(3) = (   0.707107   0.707107   0.000000 )  

     reciprocal axes: (cart. coord. in units 2 pi/alat)
               b(1) = ( -0.707107  0.707107  0.707107 )  
               b(2) = (  0.707107 -0.707107  0.707107 )  
               b(3) = (  0.707107  0.707107 -0.707107 )  


     PseudoPot. # 1 for Si read from file:
     /home/niel/git/DFT_Tutorial/qe_workshop_complete/pseudopotentials/PBE/Si.pbe-n-rrkjus_psl.1.0.0.UPF
     MD5 check sum: fa25574f73a70a4139f2adfbefec430c
     Pseudo is Ultrasoft + core correction, Zval =  4.0
     Generated using &quot;atomic&quot; code by A. Dal Corso  v.6.3
     Using radial grid of 1141 points,  6 beta functions with: 
                l(1) =   0
                l(2) =   0
                l(3) =   1
                l(4) =   1
                l(5) =   2
                l(6) =   2
     Q(r) pseudized with 0 coefficients 


     atomic species   valence    mass     pseudopotential
     Si                4.00    28.08500     Si( 1.00)

     48 Sym. Ops., with inversion, found (24 have fractional translation)



   Cartesian axes

     site n.     atom                  positions (alat units)
         1        Si     tau(   1) = (   0.0000000   0.0000000   0.0000000  )
         2        Si     tau(   2) = (   0.3535534   0.3535534   0.3535534  )

     number of k points=    10
                       cart. coord. in units 2pi/alat
        k(    1) = (   0.0883883   0.0883883   0.0883883), wk =   0.0625000
        k(    2) = (   0.2651650   0.2651650  -0.0883883), wk =   0.1875000
        k(    3) = (  -0.2651650  -0.2651650   0.4419417), wk =   0.1875000
        k(    4) = (  -0.0883883  -0.0883883   0.2651650), wk =   0.1875000
        k(    5) = (   0.4419417   0.0883883   0.0883883), wk =   0.1875000
        k(    6) = (  -0.0883883  -0.4419417   0.6187184), wk =   0.3750000
        k(    7) = (   0.0883883  -0.2651650   0.4419417), wk =   0.3750000
        k(    8) = (  -0.6187184   0.0883883   0.0883883), wk =   0.1875000
        k(    9) = (   0.2651650   0.2651650   0.2651650), wk =   0.0625000
        k(   10) = (  -0.2651650  -0.2651650   0.7954951), wk =   0.1875000

     Dense  grid:    10489 G-vectors     FFT dimensions: (  32,  32,  32)

     Smooth grid:     9257 G-vectors     FFT dimensions: (  32,  32,  32)

     Estimated max dynamical RAM per process >      39.57 MB

     Program PWSCF v.7.5 starts on  8Feb2026 at 23:16:57 

     This program is part of the open-source Quantum ESPRESSO suite
     for quantum simulation of materials; please cite
         "P. Giannozzi et al., J. Phys.:Condens. Matter 21 395502 (2009);

     Program PWSCF v.7.5 starts on  8Feb2026 at 23:16:57 

     This program is part of the open-source Quantum ESPRESSO suite
         "P. Giannozzi et al., J. Phys.:Condens. Matter 29 465901 (2017);
         "P. Giannozzi et al., J. Chem. Phys. 152 154105 (2020);
          URL http://www.quantum-espresso.org", 
     in publications or presentations arising from this work. More details at
     for quantum simulation of materials; please cite
         "P. Giannozzi et al., J. Phys.:Condens. Matter 21 395502 (2009);
         "P. Giannozzi et al., J. Phys.:Condens. Matter 29 465901 (2017);
         "P. Giannozzi et al., J. Chem. Phys. 152 154105 (2020);
          URL http://www.quantum-espresso.org", 
     in publications or presentations arising from this work. More details at
     http://www.quantum-espresso.org/quote

     http://www.quantum-espresso.org/quote

     Parallel version (MPI & OpenMP), running on      16 processor cores
     Number of MPI processes:                 1
     Threads/MPI process:                    16

     MPI processes distributed on     1 nodes
     Parallel version (MPI & OpenMP), running on      16 processor cores
     Number of MPI processes:                 1
     Threads/MPI process:                    16

     MPI processes distributed on     1 nodes
     1730 MiB available memory on the printing compute node when the environment starts
 
     1730 MiB available memory on the printing compute node when the environment starts
 
     Reading input from test.in
     Reading input from test.in

     Current dimensions of program PWSCF are:
     Max number of different atomic species (ntypx) = 10
     Max number of k-points (npk) =  40000
     Max angular momentum in pseudopotentials (lmaxx) =  4

     Current dimensions of program PWSCF are:
     Max number of different atomic species (ntypx) = 10
     Max number of k-points (npk) =  40000
     Max angular momentum in pseudopotentials (lmaxx) =  4
     Message from routine setup:
     using ibrav=0 with symmetry is DISCOURAGED, use correct ibrav instead
 
     Subspace diagonalization in iterative solution of the eigenvalue problem:
     a serial algorithm will be used

 
     G-vector sticks info
     --------------------
     sticks:   dense  smooth     PW     G-vecs:    dense   smooth      PW
     Sum         637     583    187                10489     9257    1639
 
     Using Slab Decomposition
 


     bravais-lattice index     =            0
     lattice parameter (alat)  =       7.2558  a.u.
     unit-cell volume          =     270.1072 (a.u.)^3
     number of atoms/cell      =            2
     number of atomic types    =            1
     number of electrons       =         8.00
     number of Kohn-Sham states=            4
     kinetic-energy cutoff     =      40.0000  Ry
     charge density cutoff     =     175.0000  Ry
     scf convergence threshold =      1.0E-06
     mixing beta               =       0.7000
     number of iterations used =            8  plain     mixing
     Exchange-correlation= PBE
                           (   1   4   3   4   0   0   0)

     celldm(1)=   7.255773  celldm(2)=   0.000000  celldm(3)=   0.000000
     celldm(4)=   0.000000  celldm(5)=   0.000000  celldm(6)=   0.000000

     crystal axes: (cart. coord. in units of alat)
               a(1) = (   0.000000   0.707107   0.707107 )  
               a(2) = (   0.707107   0.000000   0.707107 )  
               a(3) = (   0.707107   0.707107   0.000000 )  

     reciprocal axes: (cart. coord. in units 2 pi/alat)
               b(1) = ( -0.707107  0.707107  0.707107 )  
               b(2) = (  0.707107 -0.707107  0.707107 )  
               b(3) = (  0.707107  0.707107 -0.707107 )  


     PseudoPot. # 1 for Si read from file:
     /home/niel/git/DFT_Tutorial/qe_workshop_complete/pseudopotentials/PBE/Si.pbe-n-rrkjus_psl.1.0.0.UPF
     MD5 check sum: fa25574f73a70a4139f2adfbefec430c
     Pseudo is Ultrasoft + core correction, Zval =  4.0
     Generated using &quot;atomic&quot; code by A. Dal Corso  v.6.3
     Using radial grid of 1141 points,  6 beta functions with: 
                l(1) =   0
                l(2) =   0
                l(3) =   1
                l(4) =   1
                l(5) =   2
                l(6) =   2
     Q(r) pseudized with 0 coefficients 


     atomic species   valence    mass     pseudopotential
     Si                4.00    28.08500     Si( 1.00)

     48 Sym. Ops., with inversion, found (24 have fractional translation)



   Cartesian axes

     site n.     atom                  positions (alat units)
         1        Si     tau(   1) = (   0.0000000   0.0000000   0.0000000  )
         2        Si     tau(   2) = (   0.3535534   0.3535534   0.3535534  )

     number of k points=    10
                       cart. coord. in units 2pi/alat
        k(    1) = (   0.0883883   0.0883883   0.0883883), wk =   0.0625000
        k(    2) = (   0.2651650   0.2651650  -0.0883883), wk =   0.1875000
        k(    3) = (  -0.2651650  -0.2651650   0.4419417), wk =   0.1875000
        k(    4) = (  -0.0883883  -0.0883883   0.2651650), wk =   0.1875000
        k(    5) = (   0.4419417   0.0883883   0.0883883), wk =   0.1875000
        k(    6) = (  -0.0883883  -0.4419417   0.6187184), wk =   0.3750000
        k(    7) = (   0.0883883  -0.2651650   0.4419417), wk =   0.3750000
        k(    8) = (  -0.6187184   0.0883883   0.0883883), wk =   0.1875000
        k(    9) = (   0.2651650   0.2651650   0.2651650), wk =   0.0625000
        k(   10) = (  -0.2651650  -0.2651650   0.7954951), wk =   0.1875000

     Dense  grid:    10489 G-vectors     FFT dimensions: (  32,  32,  32)

     Smooth grid:     9257 G-vectors     FFT dimensions: (  32,  32,  32)

     Estimated max dynamical RAM per process >      39.57 MB
     Message from routine setup:
     using ibrav=0 with symmetry is DISCOURAGED, use correct ibrav instead
 
     Subspace diagonalization in iterative solution of the eigenvalue problem:
     a serial algorithm will be used

 
     G-vector sticks info
     --------------------
     sticks:   dense  smooth     PW     G-vecs:    dense   smooth      PW
     Sum         637     583    187                10489     9257    1639
 
     Using Slab Decomposition
 


     bravais-lattice index     =            0
     lattice parameter (alat)  =       7.2558  a.u.
     unit-cell volume          =     270.1072 (a.u.)^3
     number of atoms/cell      =            2
     number of atomic types    =            1
     number of electrons       =         8.00
     number of Kohn-Sham states=            4
     kinetic-energy cutoff     =      40.0000  Ry
     charge density cutoff     =     175.0000  Ry
     scf convergence threshold =      1.0E-06
     mixing beta               =       0.7000
     number of iterations used =            8  plain     mixing
     Exchange-correlation= PBE
                           (   1   4   3   4   0   0   0)

     celldm(1)=   7.255773  celldm(2)=   0.000000  celldm(3)=   0.000000
     celldm(4)=   0.000000  celldm(5)=   0.000000  celldm(6)=   0.000000

     crystal axes: (cart. coord. in units of alat)
               a(1) = (   0.000000   0.707107   0.707107 )  
               a(2) = (   0.707107   0.000000   0.707107 )  
               a(3) = (   0.707107   0.707107   0.000000 )  

     reciprocal axes: (cart. coord. in units 2 pi/alat)
               b(1) = ( -0.707107  0.707107  0.707107 )  
               b(2) = (  0.707107 -0.707107  0.707107 )  
               b(3) = (  0.707107  0.707107 -0.707107 )  


     PseudoPot. # 1 for Si read from file:
     /home/niel/git/DFT_Tutorial/qe_workshop_complete/pseudopotentials/PBE/Si.pbe-n-rrkjus_psl.1.0.0.UPF
     MD5 check sum: fa25574f73a70a4139f2adfbefec430c
     Pseudo is Ultrasoft + core correction, Zval =  4.0
     Generated using &quot;atomic&quot; code by A. Dal Corso  v.6.3
     Using radial grid of 1141 points,  6 beta functions with: 
                l(1) =   0
                l(2) =   0
                l(3) =   1
                l(4) =   1
                l(5) =   2
                l(6) =   2
     Q(r) pseudized with 0 coefficients 


     atomic species   valence    mass     pseudopotential
     Si                4.00    28.08500     Si( 1.00)

     48 Sym. Ops., with inversion, found (24 have fractional translation)



   Cartesian axes

     site n.     atom                  positions (alat units)
         1        Si     tau(   1) = (   0.0000000   0.0000000   0.0000000  )
         2        Si     tau(   2) = (   0.3535534   0.3535534   0.3535534  )

     number of k points=    10
                       cart. coord. in units 2pi/alat
        k(    1) = (   0.0883883   0.0883883   0.0883883), wk =   0.0625000
        k(    2) = (   0.2651650   0.2651650  -0.0883883), wk =   0.1875000
        k(    3) = (  -0.2651650  -0.2651650   0.4419417), wk =   0.1875000
        k(    4) = (  -0.0883883  -0.0883883   0.2651650), wk =   0.1875000
        k(    5) = (   0.4419417   0.0883883   0.0883883), wk =   0.1875000
        k(    6) = (  -0.0883883  -0.4419417   0.6187184), wk =   0.3750000
        k(    7) = (   0.0883883  -0.2651650   0.4419417), wk =   0.3750000
        k(    8) = (  -0.6187184   0.0883883   0.0883883), wk =   0.1875000
        k(    9) = (   0.2651650   0.2651650   0.2651650), wk =   0.0625000
        k(   10) = (  -0.2651650  -0.2651650   0.7954951), wk =   0.1875000

     Dense  grid:    10489 G-vectors     FFT dimensions: (  32,  32,  32)

     Smooth grid:     9257 G-vectors     FFT dimensions: (  32,  32,  32)

     Estimated max dynamical RAM per process >      39.57 MB

     Check: negative core charge=   -0.000001

     Initial potential from superposition of free atoms


     Check: negative core charge=   -0.000001

     Initial potential from superposition of free atoms
     starting charge       7.9989, renormalised to       8.0000

     starting charge       7.9989, renormalised to       8.0000
     Starting wfcs are    8 randomized atomic wfcs
     Starting wfcs are    8 randomized atomic wfcs

     total cpu time spent up to now is        0.7 secs

     Self-consistent Calculation

     iteration #  1     ecut=    40.00 Ry     beta= 0.70
     Davidson diagonalization with overlap

     Check: negative core charge=   -0.000001

     Initial potential from superposition of free atoms

     starting charge       7.9989, renormalised to       8.0000

     Check: negative core charge=   -0.000001

     Initial potential from superposition of free atoms

     starting charge       7.9989, renormalised to       8.0000
     Starting wfcs are    8 randomized atomic wfcs
     Starting wfcs are    8 randomized atomic wfcs
     ethr =  1.00E-02,  avg # of iterations =  2.0

     Threshold (ethr) on eigenvalues was too large:
     Diagonalizing with lowered threshold

     Davidson diagonalization with overlap

     total cpu time spent up to now is        1.4 secs

     Self-consistent Calculation

     iteration #  1     ecut=    40.00 Ry     beta= 0.70
     Davidson diagonalization with overlap
     ethr =  6.21E-04,  avg # of iterations =  1.6

     total cpu time spent up to now is        1.7 secs

     Self-consistent Calculation

     iteration #  1     ecut=    40.00 Ry     beta= 0.70
     Davidson diagonalization with overlap

     total cpu time spent up to now is        1.7 secs

     Self-consistent Calculation

     iteration #  1     ecut=    40.00 Ry     beta= 0.70
     Davidson diagonalization with overlap

     total cpu time spent up to now is        1.9 secs

     total energy              =     -22.83686897 Ry
     estimated scf accuracy    <       0.05386686 Ry

     iteration #  2     ecut=    40.00 Ry     beta= 0.70
     Davidson diagonalization with overlap
     ethr =  6.73E-04,  avg # of iterations =  1.0

     total cpu time spent up to now is        2.3 secs

     total energy              =     -22.83865848 Ry
     estimated scf accuracy    <       0.00285019 Ry

     iteration #  3     ecut=    40.00 Ry     beta= 0.70
     Davidson diagonalization with overlap
     ethr =  1.00E-02,  avg # of iterations =  2.0

     Threshold (ethr) on eigenvalues was too large:
     Diagonalizing with lowered threshold

     Davidson diagonalization with overlap
     ethr =  1.00E-02,  avg # of iterations =  2.0
     ethr =  1.00E-02,  avg # of iterations =  2.0

     Threshold (ethr) on eigenvalues was too large:
     Diagonalizing with lowered threshold

     Davidson diagonalization with overlap

     Threshold (ethr) on eigenvalues was too large:
     Diagonalizing with lowered threshold

     Davidson diagonalization with overlap
     ethr =  3.56E-05,  avg # of iterations =  3.0

     total cpu time spent up to now is        3.8 secs

     total energy              =     -22.83946069 Ry
     estimated scf accuracy    <       0.00011881 Ry

     iteration #  4     ecut=    40.00 Ry     beta= 0.70
     Davidson diagonalization with overlap
     ethr =  6.21E-04,  avg # of iterations =  1.6

     total cpu time spent up to now is        4.2 secs

     total energy              =     -22.83686897 Ry
     estimated scf accuracy    <       0.05386686 Ry

     iteration #  2     ecut=    40.00 Ry     beta= 0.70
     Davidson diagonalization with overlap
     ethr =  6.21E-04,  avg # of iterations =  1.6
     ethr =  6.21E-04,  avg # of iterations =  1.6
     ethr =  1.49E-06,  avg # of iterations =  3.4

     total cpu time spent up to now is        5.0 secs

     total energy              =     -22.83686897 Ry
     estimated scf accuracy    <       0.05386686 Ry

     iteration #  2     ecut=    40.00 Ry     beta= 0.70
     Davidson diagonalization with overlap
     ethr =  6.73E-04,  avg # of iterations =  1.0

     total cpu time spent up to now is        5.1 secs

     total cpu time spent up to now is        5.2 secs


     total energy              =     -22.83686897 Ry
     estimated scf accuracy    <       0.05386686 Ry

     iteration #  2     ecut=    40.00 Ry     beta= 0.70
     Davidson diagonalization with overlap
     total energy              =     -22.83951542 Ry
     estimated scf accuracy    <       0.00002896 Ry

     iteration #  5     ecut=    40.00 Ry     beta= 0.70
     Davidson diagonalization with overlap

     total cpu time spent up to now is        5.6 secs

     total energy              =     -22.83865848 Ry
     estimated scf accuracy    <       0.00285019 Ry

     iteration #  3     ecut=    40.00 Ry     beta= 0.70
     Davidson diagonalization with overlap
     ethr =  6.73E-04,  avg # of iterations =  1.0
     ethr =  6.73E-04,  avg # of iterations =  1.0
     ethr =  3.62E-07,  avg # of iterations =  2.6


     total cpu time spent up to now is        5.9 secs

     End of self-consistent calculation

          k = 0.0884 0.0884 0.0884 (  1173 PWs)   bands (ev):

    -5.5512   4.6099   5.9204   5.9204

          k = 0.2652 0.2652-0.0884 (  1151 PWs)   bands (ev):

    -4.5050   1.5817   3.8970   5.4348

          k =-0.2652-0.2652 0.4419 (  1160 PWs)   bands (ev):

    -3.3367  -0.5422   3.9281   4.6458

          k =-0.0884-0.0884 0.2652 (  1160 PWs)   bands (ev):

    -5.0137   2.9838   4.8896   4.9661

          k = 0.4419 0.0884 0.0884 (  1157 PWs)   bands (ev):

    -3.9632   1.2669   3.5367   3.9993

          k =-0.0884-0.4419 0.6187 (  1157 PWs)   bands (ev):

    -2.2867  -0.7253   2.1462   3.2472

          k = 0.0884-0.2652 0.4419 (  1150 PWs)   bands (ev):

    -3.5372   0.3655   2.8862   4.2785

          k =-0.6187 0.0884 0.0884 (  1150 PWs)   bands (ev):

    -2.4630  -0.6232   2.7711   3.5244

          k = 0.2652 0.2652 0.2652 (  1155 PWs)   bands (ev):

    -4.0616   0.2592   5.1216   5.1216

          k =-0.2652-0.2652 0.7955 (  1150 PWs)   bands (ev):

    -2.8324  -0.4345   2.2140   4.3212

     highest occupied level (ev):     5.9204

!    total energy              =     -22.83952300 Ry
     estimated scf accuracy    <       0.00000030 Ry

     The total energy is the sum of the following terms:
     one-electron contribution =       5.16817256 Ry
     hartree contribution      =       1.10093510 Ry
     xc contribution           =     -12.30968689 Ry
     ewald contribution        =     -16.79894377 Ry

     convergence has been achieved in   5 iterations

     total cpu time spent up to now is        5.9 secs

     total energy              =     -22.83865848 Ry
     estimated scf accuracy    <       0.00285019 Ry

     iteration #  3     ecut=    40.00 Ry     beta= 0.70
     Davidson diagonalization with overlap
     total cpu time spent up to now is        5.8 secs

     total energy              =     -22.83865848 Ry
     estimated scf accuracy    <       0.00285019 Ry

     iteration #  3     ecut=    40.00 Ry     beta= 0.70
     Davidson diagonalization with overlap
     ethr =  3.56E-05,  avg # of iterations =  3.0

     Forces acting on atoms (cartesian axes, Ry/au):

     atom    1 type  1   force =    -0.00000000    0.00000000   -0.00000000
     atom    2 type  1   force =     0.00000000   -0.00000000    0.00000000

     Total force =     0.000000     Total SCF correction =     0.000000

     Writing all to output data dir ./tmp/test.save/ :
     XML data file, charge density, pseudopotentials, collected wavefunctions
 
     init_run     :      2.83s CPU      0.68s WALL (       1 calls)
     electrons    :     20.51s CPU      5.21s WALL (       1 calls)
     forces       :      0.79s CPU      0.26s WALL (       1 calls)

     Called by init_run:
     wfcinit      :      1.15s CPU      0.26s WALL (       1 calls)
     potinit      :      0.15s CPU      0.03s WALL (       1 calls)
     hinit0       :      1.35s CPU      0.35s WALL (       1 calls)

     Called by electrons:
     c_bands      :     15.96s CPU      4.03s WALL (       6 calls)
     sum_band     :      2.79s CPU      0.68s WALL (       6 calls)
     v_of_rho     :      0.45s CPU      0.12s WALL (       6 calls)
     newd         :      1.16s CPU      0.31s WALL (       6 calls)
     mix_rho      :      0.11s CPU      0.03s WALL (       6 calls)

     Called by c_bands:
     init_us_2    :      0.72s CPU      0.18s WALL (     140 calls)
     cegterg      :     14.85s CPU      3.77s WALL (      60 calls)

     Called by *egterg:
     cdiaghg      :      0.07s CPU      0.02s WALL (     186 calls)
     h_psi        :     10.36s CPU      2.58s WALL (     206 calls)
     s_psi        :      0.08s CPU      0.02s WALL (     206 calls)
     g_psi        :      0.01s CPU      0.00s WALL (     136 calls)

     Called by h_psi:
     h_psi:calbec :      0.08s CPU      0.02s WALL (     206 calls)
     vloc_psi     :      8.52s CPU      2.11s WALL (     206 calls)
                                        0.00s GPU  (     206 calls)
     add_vuspsi   :      0.09s CPU      0.02s WALL (     206 calls)

     General routines
     calbec       :      0.12s CPU      0.03s WALL (     306 calls)
     fft          :      0.12s CPU      0.03s WALL (      88 calls)
     ffts         :      0.02s CPU      0.00s WALL (      12 calls)
     fftw         :      1.74s CPU      0.39s WALL (    1732 calls)
     interpolate  :      0.02s CPU      0.00s WALL (       6 calls)
 
     Parallel routines
 
     PWSCF        :     24.44s CPU      6.29s WALL

 
   This run was terminated on:  23:17: 3   8Feb2026            

=------------------------------------------------------------------------------=
   JOB DONE.
=------------------------------------------------------------------------------=

     total cpu time spent up to now is        6.3 secs

     total energy              =     -22.83946069 Ry
     estimated scf accuracy    <       0.00011881 Ry

     iteration #  4     ecut=    40.00 Ry     beta= 0.70
     Davidson diagonalization with overlap
     ethr =  3.56E-05,  avg # of iterations =  3.0

     total cpu time spent up to now is        6.6 secs

     total energy              =     -22.83946069 Ry
     estimated scf accuracy    <       0.00011881 Ry

     iteration #  4     ecut=    40.00 Ry     beta= 0.70
     Davidson diagonalization with overlap
     ethr =  3.56E-05,  avg # of iterations =  3.0
     ethr =  1.49E-06,  avg # of iterations =  3.4

     total cpu time spent up to now is        6.9 secs

     total energy              =     -22.83946069 Ry
     estimated scf accuracy    <       0.00011881 Ry

     iteration #  4     ecut=    40.00 Ry     beta= 0.70
     Davidson diagonalization with overlap

     total cpu time spent up to now is        7.1 secs

     total energy              =     -22.83951542 Ry
     estimated scf accuracy    <       0.00002896 Ry

     iteration #  5     ecut=    40.00 Ry     beta= 0.70
     Davidson diagonalization with overlap
     ethr =  1.49E-06,  avg # of iterations =  3.4

     total cpu time spent up to now is        7.7 secs

     total energy              =     -22.83951542 Ry
     estimated scf accuracy    <       0.00002896 Ry

     iteration #  5     ecut=    40.00 Ry     beta= 0.70
     Davidson diagonalization with overlap
     ethr =  1.49E-06,  avg # of iterations =  3.4
     ethr =  3.62E-07,  avg # of iterations =  2.6

     total cpu time spent up to now is        8.4 secs

     total energy              =     -22.83951542 Ry
     estimated scf accuracy    <       0.00002896 Ry

     iteration #  5     ecut=    40.00 Ry     beta= 0.70
     Davidson diagonalization with overlap

     total cpu time spent up to now is        9.0 secs

     End of self-consistent calculation

          k = 0.0884 0.0884 0.0884 (  1173 PWs)   bands (ev):

    -5.5512   4.6099   5.9204   5.9204

          k = 0.2652 0.2652-0.0884 (  1151 PWs)   bands (ev):

    -4.5050   1.5817   3.8970   5.4348

          k =-0.2652-0.2652 0.4419 (  1160 PWs)   bands (ev):

    -3.3367  -0.5422   3.9281   4.6458

          k =-0.0884-0.0884 0.2652 (  1160 PWs)   bands (ev):

    -5.0137   2.9838   4.8896   4.9661

          k = 0.4419 0.0884 0.0884 (  1157 PWs)   bands (ev):

    -3.9632   1.2669   3.5367   3.9993

          k =-0.0884-0.4419 0.6187 (  1157 PWs)   bands (ev):

    -2.2867  -0.7253   2.1462   3.2472

          k = 0.0884-0.2652 0.4419 (  1150 PWs)   bands (ev):

    -3.5372   0.3655   2.8862   4.2785

          k =-0.6187 0.0884 0.0884 (  1150 PWs)   bands (ev):

    -2.4630  -0.6232   2.7711   3.5244

          k = 0.2652 0.2652 0.2652 (  1155 PWs)   bands (ev):

    -4.0616   0.2592   5.1216   5.1216

          k =-0.2652-0.2652 0.7955 (  1150 PWs)   bands (ev):

    -2.8324  -0.4345   2.2140   4.3212

     highest occupied level (ev):     5.9204

!    total energy              =     -22.83952300 Ry
     estimated scf accuracy    <       0.00000030 Ry

     The total energy is the sum of the following terms:
     one-electron contribution =       5.16817256 Ry
     hartree contribution      =       1.10093510 Ry
     xc contribution           =     -12.30968689 Ry
     ewald contribution        =     -16.79894377 Ry

     convergence has been achieved in   5 iterations
     ethr =  3.62E-07,  avg # of iterations =  2.6
     ethr =  3.62E-07,  avg # of iterations =  2.6

     total cpu time spent up to now is        9.5 secs

     End of self-consistent calculation

          k = 0.0884 0.0884 0.0884 (  1173 PWs)   bands (ev):

    -5.5512   4.6099   5.9204   5.9204

          k = 0.2652 0.2652-0.0884 (  1151 PWs)   bands (ev):

    -4.5050   1.5817   3.8970   5.4348

          k =-0.2652-0.2652 0.4419 (  1160 PWs)   bands (ev):

    -3.3367  -0.5422   3.9281   4.6458

          k =-0.0884-0.0884 0.2652 (  1160 PWs)   bands (ev):

    -5.0137   2.9838   4.8896   4.9661

          k = 0.4419 0.0884 0.0884 (  1157 PWs)   bands (ev):

    -3.9632   1.2669   3.5367   3.9993

          k =-0.0884-0.4419 0.6187 (  1157 PWs)   bands (ev):

    -2.2867  -0.7253   2.1462   3.2472

          k = 0.0884-0.2652 0.4419 (  1150 PWs)   bands (ev):

    -3.5372   0.3655   2.8862   4.2785

          k =-0.6187 0.0884 0.0884 (  1150 PWs)   bands (ev):

    -2.4630  -0.6232   2.7711   3.5244

          k = 0.2652 0.2652 0.2652 (  1155 PWs)   bands (ev):

    -4.0616   0.2592   5.1216   5.1216

          k =-0.2652-0.2652 0.7955 (  1150 PWs)   bands (ev):

    -2.8324  -0.4345   2.2140   4.3212

     highest occupied level (ev):     5.9204

!    total energy              =     -22.83952300 Ry
     estimated scf accuracy    <       0.00000030 Ry

     The total energy is the sum of the following terms:
     one-electron contribution =       5.16817256 Ry
     hartree contribution      =       1.10093510 Ry
     xc contribution           =     -12.30968689 Ry
     ewald contribution        =     -16.79894377 Ry

     convergence has been achieved in   5 iterations

     total cpu time spent up to now is        9.6 secs

     End of self-consistent calculation

          k = 0.0884 0.0884 0.0884 (  1173 PWs)   bands (ev):

    -5.5512   4.6099   5.9204   5.9204

          k = 0.2652 0.2652-0.0884 (  1151 PWs)   bands (ev):

    -4.5050   1.5817   3.8970   5.4348

          k =-0.2652-0.2652 0.4419 (  1160 PWs)   bands (ev):

    -3.3367  -0.5422   3.9281   4.6458

          k =-0.0884-0.0884 0.2652 (  1160 PWs)   bands (ev):

    -5.0137   2.9838   4.8896   4.9661

          k = 0.4419 0.0884 0.0884 (  1157 PWs)   bands (ev):

    -3.9632   1.2669   3.5367   3.9993

          k =-0.0884-0.4419 0.6187 (  1157 PWs)   bands (ev):

    -2.2867  -0.7253   2.1462   3.2472

          k = 0.0884-0.2652 0.4419 (  1150 PWs)   bands (ev):

    -3.5372   0.3655   2.8862   4.2785

          k =-0.6187 0.0884 0.0884 (  1150 PWs)   bands (ev):

    -2.4630  -0.6232   2.7711   3.5244

          k = 0.2652 0.2652 0.2652 (  1155 PWs)   bands (ev):

    -4.0616   0.2592   5.1216   5.1216

          k =-0.2652-0.2652 0.7955 (  1150 PWs)   bands (ev):

    -2.8324  -0.4345   2.2140   4.3212

     highest occupied level (ev):     5.9204

!    total energy              =     -22.83952300 Ry
     estimated scf accuracy    <       0.00000030 Ry

     The total energy is the sum of the following terms:
     one-electron contribution =       5.16817256 Ry

     Forces acting on atoms (cartesian axes, Ry/au):

     atom    1 type  1   force =    -0.00000000    0.00000000   -0.00000000
     atom    2 type  1   force =     0.00000000   -0.00000000    0.00000000

     Total force =     0.000000     Total SCF correction =     0.000000

     Writing all to output data dir ./tmp/test.save/ :
     hartree contribution      =       1.10093510 Ry
     xc contribution           =     -12.30968689 Ry
     ewald contribution        =     -16.79894377 Ry

     convergence has been achieved in   5 iterations

     Forces acting on atoms (cartesian axes, Ry/au):

     atom    1 type  1   force =    -0.00000000    0.00000000   -0.00000000
     atom    2 type  1   force =     0.00000000   -0.00000000    0.00000000

     Total force =     0.000000     Total SCF correction =     0.000000

     Writing all to output data dir ./tmp/test.save/ :
     XML data file, charge density, pseudopotentials, collected wavefunctions
 
     init_run     :      4.37s CPU      1.31s WALL (       1 calls)
     electrons    :     23.97s CPU      7.66s WALL (       1 calls)
     forces       :      2.43s CPU      0.71s WALL (       1 calls)

     Called by init_run:
     wfcinit      :      2.24s CPU      0.81s WALL (       1 calls)
     potinit      :      0.17s CPU      0.03s WALL (       1 calls)
     hinit0       :      1.62s CPU      0.38s WALL (       1 calls)

     Called by electrons:
     c_bands      :     15.95s CPU      5.09s WALL (       6 calls)
     sum_band     :      5.96s CPU      1.93s WALL (       6 calls)
     v_of_rho     :      0.42s CPU      0.12s WALL (       6 calls)
     newd         :      1.93s CPU      0.58s WALL (       6 calls)
     mix_rho      :      0.06s CPU      0.02s WALL (       6 calls)

     Called by c_bands:
     init_us_2    :      2.06s CPU      0.69s WALL (     140 calls)
     cegterg      :     14.32s CPU      4.58s WALL (      60 calls)

     Called by *egterg:
     cdiaghg      :      0.05s CPU      0.01s WALL (     186 calls)
     h_psi        :     11.94s CPU      3.88s WALL (     206 calls)
     s_psi        :      0.08s CPU      0.02s WALL (     206 calls)
     g_psi        :      0.01s CPU      0.00s WALL (     136 calls)

     Called by h_psi:
     h_psi:calbec :      0.10s CPU      0.03s WALL (     206 calls)
     vloc_psi     :      8.98s CPU      2.90s WALL (     206 calls)
                                        0.00s GPU  (     206 calls)
     add_vuspsi   :      0.09s CPU      0.02s WALL (     206 calls)

     General routines
     calbec       :      0.14s CPU      0.03s WALL (     306 calls)
     fft          :      0.14s CPU      0.03s WALL (      88 calls)
     ffts         :      0.01s CPU      0.00s WALL (      12 calls)
     fftw         :      1.96s CPU      0.50s WALL (    1732 calls)
     interpolate  :      0.02s CPU      0.00s WALL (       6 calls)
 
     Parallel routines
 
     PWSCF        :     31.71s CPU      9.98s WALL

 
   This run was terminated on:  23:17: 7   8Feb2026            

=------------------------------------------------------------------------------=
   JOB DONE.
=------------------------------------------------------------------------------=

     Forces acting on atoms (cartesian axes, Ry/au):

     atom    1 type  1   force =    -0.00000000    0.00000000   -0.00000000
     atom    2 type  1   force =     0.00000000   -0.00000000    0.00000000

     Total force =     0.000000     Total SCF correction =     0.000000

     Writing all to output data dir ./tmp/test.save/ :
     XML data file, charge density, pseudopotentials, collected wavefunctions
 
     init_run     :      3.72s CPU      1.65s WALL (       1 calls)
     electrons    :     26.17s CPU      7.86s WALL (       1 calls)
     forces       :      1.10s CPU      0.31s WALL (       1 calls)

     Called by init_run:
     wfcinit      :      1.54s CPU      0.62s WALL (       1 calls)
     potinit      :      0.32s CPU      0.14s WALL (       1 calls)
     hinit0       :      1.51s CPU      0.74s WALL (       1 calls)

     Called by electrons:
     c_bands      :     18.47s CPU      5.56s WALL (       6 calls)
     sum_band     :      5.73s CPU      1.75s WALL (       6 calls)
     v_of_rho     :      0.57s CPU      0.19s WALL (       6 calls)
     newd         :      1.39s CPU      0.43s WALL (       6 calls)
     mix_rho      :      0.12s CPU      0.03s WALL (       6 calls)

     Called by c_bands:
     init_us_2    :      1.78s CPU      0.58s WALL (     140 calls)
     cegterg      :     16.86s CPU      5.09s WALL (      60 calls)

     Called by *egterg:
     cdiaghg      :      0.08s CPU      0.02s WALL (     186 calls)
     h_psi        :     12.81s CPU      3.97s WALL (     206 calls)
     s_psi        :      0.10s CPU      0.02s WALL (     206 calls)
     g_psi        :      0.01s CPU      0.00s WALL (     136 calls)

     Called by h_psi:
     h_psi:calbec :      0.10s CPU      0.03s WALL (     206 calls)
     vloc_psi     :      9.83s CPU      3.02s WALL (     206 calls)
                                        0.00s GPU  (     206 calls)
     add_vuspsi   :      0.08s CPU      0.02s WALL (     206 calls)

     General routines
     calbec       :      0.13s CPU      0.03s WALL (     306 calls)
     fft          :      0.12s CPU      0.03s WALL (      88 calls)
     ffts         :      0.01s CPU      0.00s WALL (      12 calls)
     fftw         :      2.19s CPU      0.57s WALL (    1732 calls)
     interpolate  :      0.02s CPU      0.00s WALL (       6 calls)
 
     Parallel routines
 
     PWSCF        :     31.27s CPU      9.94s WALL

 
   This run was terminated on:  23:17: 7   8Feb2026            

=------------------------------------------------------------------------------=
   JOB DONE.
=------------------------------------------------------------------------------=
     XML data file, charge density, pseudopotentials, collected wavefunctions
 
     init_run     :      4.13s CPU      1.62s WALL (       1 calls)
     electrons    :     27.52s CPU      8.03s WALL (       1 calls)
     forces       :      1.16s CPU      0.22s WALL (       1 calls)

     Called by init_run:
     wfcinit      :      1.93s CPU      0.75s WALL (       1 calls)
     potinit      :      0.26s CPU      0.10s WALL (       1 calls)
     hinit0       :      1.82s CPU      0.72s WALL (       1 calls)

     Called by electrons:
     c_bands      :     19.05s CPU      5.76s WALL (       6 calls)
     sum_band     :      5.94s CPU      1.61s WALL (       6 calls)
     v_of_rho     :      0.51s CPU      0.14s WALL (       6 calls)
     newd         :      0.96s CPU      0.26s WALL (       6 calls)
     mix_rho      :      0.07s CPU      0.02s WALL (       6 calls)

     Called by c_bands:
     init_us_2    :      1.76s CPU      0.56s WALL (     140 calls)
     cegterg      :     17.47s CPU      5.32s WALL (      60 calls)

     Called by *egterg:
     cdiaghg      :      0.05s CPU      0.01s WALL (     186 calls)
     h_psi        :     13.57s CPU      4.24s WALL (     206 calls)
     s_psi        :      0.08s CPU      0.02s WALL (     206 calls)
     g_psi        :      0.01s CPU      0.00s WALL (     136 calls)

     Called by h_psi:
     h_psi:calbec :      0.08s CPU      0.02s WALL (     206 calls)
     vloc_psi     :     10.19s CPU      3.15s WALL (     206 calls)
                                        0.00s GPU  (     206 calls)
     add_vuspsi   :      0.09s CPU      0.02s WALL (     206 calls)

     General routines
     calbec       :      0.11s CPU      0.03s WALL (     306 calls)
     fft          :      0.10s CPU      0.02s WALL (      88 calls)
     ffts         :      0.01s CPU      0.00s WALL (      12 calls)
     fftw         :      1.69s CPU      0.44s WALL (    1732 calls)
     interpolate  :      0.01s CPU      0.00s WALL (       6 calls)
 
     Parallel routines
 
     PWSCF        :     33.06s CPU      9.96s WALL

 
   This run was terminated on:  23:17: 7   8Feb2026            

=------------------------------------------------------------------------------=
   JOB DONE.
=------------------------------------------------------------------------------=
