
     Program PWSCF v.7.5 starts on  3Feb2026 at 23:39:10 

     This program is part of the open-source Quantum ESPRESSO suite
     for quantum simulation of materials; please cite
         "P. Giannozzi et al., J. Phys.:Condens. Matter 21 395502 (2009);
         "P. Giannozzi et al., J. Phys.:Condens. Matter 29 465901 (2017);
         "P. Giannozzi et al., J. Chem. Phys. 152 154105 (2020);
          URL http://www.quantum-espresso.org", 
     in publications or presentations arising from this work. More details at
     http://www.quantum-espresso.org/quote

     Parallel version (MPI & OpenMP), running on      16 processor cores
     Number of MPI processes:                 4
     Threads/MPI process:                     4

     MPI processes distributed on     1 nodes
     926 MiB available memory on the printing compute node when the environment starts
 
     Reading input from test.in

     Current dimensions of program PWSCF are:
     Max number of different atomic species (ntypx) = 10
     Max number of k-points (npk) =  40000
     Max angular momentum in pseudopotentials (lmaxx) =  4
     Message from routine setup:
     using ibrav=0 with symmetry is DISCOURAGED, use correct ibrav instead
 
     R & G space division:  proc/nbgrp/npool/nimage =       4
     Subspace diagonalization in iterative solution of the eigenvalue problem:
     a serial algorithm will be used

 
     Parallelization info
     --------------------
     sticks:   dense  smooth     PW     G-vecs:    dense   smooth      PW
     Min         289     145     46                 6555     2313     409
     Max         290     146     47                 6559     2316     411
     Sum        1159     583    187                26229     9257    1639
 
     Using Slab Decomposition
 


     bravais-lattice index     =            0
     lattice parameter (alat)  =       7.2558  a.u.
     unit-cell volume          =     270.1072 (a.u.)^3
     number of atoms/cell      =            2
     number of atomic types    =            1
     number of electrons       =         8.00
     number of Kohn-Sham states=            4
     kinetic-energy cutoff     =      40.0000  Ry
     charge density cutoff     =     320.0000  Ry
     scf convergence threshold =      1.0E-06
     mixing beta               =       0.7000
     number of iterations used =            8  plain     mixing
     Exchange-correlation= PBE
                           (   1   4   3   4   0   0   0)

     celldm(1)=   7.255773  celldm(2)=   0.000000  celldm(3)=   0.000000
     celldm(4)=   0.000000  celldm(5)=   0.000000  celldm(6)=   0.000000

     crystal axes: (cart. coord. in units of alat)
               a(1) = (   0.000000   0.707107   0.707107 )  
               a(2) = (   0.707107   0.000000   0.707107 )  
               a(3) = (   0.707107   0.707107   0.000000 )  

     reciprocal axes: (cart. coord. in units 2 pi/alat)
               b(1) = ( -0.707107  0.707107  0.707107 )  
               b(2) = (  0.707107 -0.707107  0.707107 )  
               b(3) = (  0.707107  0.707107 -0.707107 )  


     PseudoPot. # 1 for Si read from file:
     /home/niel/git/DFT_Tutorial/qe_workshop_complete/pseudopotentials/PBE/Si.pbe-n-rrkjus_psl.1.0.0.UPF
     MD5 check sum: fa25574f73a70a4139f2adfbefec430c
     Pseudo is Ultrasoft + core correction, Zval =  4.0
     Generated using &quot;atomic&quot; code by A. Dal Corso  v.6.3
     Using radial grid of 1141 points,  6 beta functions with: 
                l(1) =   0
                l(2) =   0
                l(3) =   1
                l(4) =   1
                l(5) =   2
                l(6) =   2
     Q(r) pseudized with 0 coefficients 


     atomic species   valence    mass     pseudopotential
     Si                4.00    28.08500     Si( 1.00)

     48 Sym. Ops., with inversion, found (24 have fractional translation)



   Cartesian axes

     site n.     atom                  positions (alat units)
         1        Si     tau(   1) = (   0.0000000   0.0000000   0.0000000  )
         2        Si     tau(   2) = (   0.3535534   0.3535534   0.3535534  )

     number of k points=    10
                       cart. coord. in units 2pi/alat
        k(    1) = (   0.0883883   0.0883883   0.0883883), wk =   0.0625000
        k(    2) = (   0.2651650   0.2651650  -0.0883883), wk =   0.1875000
        k(    3) = (  -0.2651650  -0.2651650   0.4419417), wk =   0.1875000
        k(    4) = (  -0.0883883  -0.0883883   0.2651650), wk =   0.1875000
        k(    5) = (   0.4419417   0.0883883   0.0883883), wk =   0.1875000
        k(    6) = (  -0.0883883  -0.4419417   0.6187184), wk =   0.3750000
        k(    7) = (   0.0883883  -0.2651650   0.4419417), wk =   0.3750000
        k(    8) = (  -0.6187184   0.0883883   0.0883883), wk =   0.1875000
        k(    9) = (   0.2651650   0.2651650   0.2651650), wk =   0.0625000
        k(   10) = (  -0.2651650  -0.2651650   0.7954951), wk =   0.1875000

     Dense  grid:    26229 G-vectors     FFT dimensions: (  48,  48,  48)

     Smooth grid:     9257 G-vectors     FFT dimensions: (  32,  32,  32)

     Estimated max dynamical RAM per process >      25.45 MB

     Estimated total dynamical RAM >     101.82 MB

     Initial potential from superposition of free atoms

     starting charge       7.9989, renormalised to       8.0000
     Starting wfcs are    8 randomized atomic wfcs

     total cpu time spent up to now is        0.5 secs

     Self-consistent Calculation

     iteration #  1     ecut=    40.00 Ry     beta= 0.70
     Davidson diagonalization with overlap
     ethr =  1.00E-02,  avg # of iterations =  2.0

     Threshold (ethr) on eigenvalues was too large:
     Diagonalizing with lowered threshold

     Davidson diagonalization with overlap
     ethr =  6.19E-04,  avg # of iterations =  1.6

     total cpu time spent up to now is        1.0 secs

     total energy              =     -22.83693055 Ry
     estimated scf accuracy    <       0.05388664 Ry

     iteration #  2     ecut=    40.00 Ry     beta= 0.70
     Davidson diagonalization with overlap
     ethr =  6.74E-04,  avg # of iterations =  1.0

     total cpu time spent up to now is        1.2 secs

     total energy              =     -22.83872651 Ry
     estimated scf accuracy    <       0.00282563 Ry

     iteration #  3     ecut=    40.00 Ry     beta= 0.70
     Davidson diagonalization with overlap
     ethr =  3.53E-05,  avg # of iterations =  2.6

     total cpu time spent up to now is        1.5 secs

     total energy              =     -22.83944763 Ry
     estimated scf accuracy    <       0.00009292 Ry

     iteration #  4     ecut=    40.00 Ry     beta= 0.70
     Davidson diagonalization with overlap
     ethr =  1.16E-06,  avg # of iterations =  4.2

     total cpu time spent up to now is        1.7 secs

     total energy              =     -22.83951972 Ry
     estimated scf accuracy    <       0.00000531 Ry

     iteration #  5     ecut=    40.00 Ry     beta= 0.70
     Davidson diagonalization with overlap
     ethr =  6.63E-08,  avg # of iterations =  4.4

     total cpu time spent up to now is        2.0 secs

     End of self-consistent calculation

          k = 0.0884 0.0884 0.0884 (  1173 PWs)   bands (ev):

    -5.5520   4.6090   5.9195   5.9195

          k = 0.2652 0.2652-0.0884 (  1151 PWs)   bands (ev):

    -4.5057   1.5809   3.8963   5.4339

          k =-0.2652-0.2652 0.4419 (  1160 PWs)   bands (ev):

    -3.3376  -0.5429   3.9274   4.6450

          k =-0.0884-0.0884 0.2652 (  1160 PWs)   bands (ev):

    -5.0144   2.9830   4.8888   4.9653

          k = 0.4419 0.0884 0.0884 (  1157 PWs)   bands (ev):

    -3.9639   1.2660   3.5361   3.9986

          k =-0.0884-0.4419 0.6187 (  1157 PWs)   bands (ev):

    -2.2875  -0.7261   2.1456   3.2465

          k = 0.0884-0.2652 0.4419 (  1150 PWs)   bands (ev):

    -3.5380   0.3647   2.8855   4.2778

          k =-0.6187 0.0884 0.0884 (  1150 PWs)   bands (ev):

    -2.4638  -0.6241   2.7704   3.5237

          k = 0.2652 0.2652 0.2652 (  1155 PWs)   bands (ev):

    -4.0624   0.2585   5.1208   5.1208

          k =-0.2652-0.2652 0.7955 (  1150 PWs)   bands (ev):

    -2.8332  -0.4353   2.2134   4.3205

     highest occupied level (ev):     5.9195

!    total energy              =     -22.83952387 Ry
     estimated scf accuracy    <       0.00000032 Ry

     The total energy is the sum of the following terms:
     one-electron contribution =       5.16835568 Ry
     hartree contribution      =       1.10057352 Ry
     xc contribution           =     -12.30950933 Ry
     ewald contribution        =     -16.79894373 Ry

     convergence has been achieved in   5 iterations

     Forces acting on atoms (cartesian axes, Ry/au):

     atom    1 type  1   force =     0.00000000    0.00000000   -0.00000000
     atom    2 type  1   force =     0.00000000    0.00000000    0.00000000

     Total force =     0.000000     Total SCF correction =     0.000000

     Writing all to output data dir ./tmp/test.save/ :
     XML data file, charge density, pseudopotentials, collected wavefunctions
 
     init_run     :      1.18s CPU      0.44s WALL (       1 calls)
     electrons    :      4.92s CPU      1.54s WALL (       1 calls)
     forces       :      0.39s CPU      0.11s WALL (       1 calls)

     Called by init_run:
     wfcinit      :      0.36s CPU      0.14s WALL (       1 calls)
     potinit      :      0.20s CPU      0.07s WALL (       1 calls)
     hinit0       :      0.46s CPU      0.15s WALL (       1 calls)

     Called by electrons:
     c_bands      :      2.79s CPU      0.87s WALL (       6 calls)
     sum_band     :      1.15s CPU      0.38s WALL (       6 calls)
     v_of_rho     :      0.40s CPU      0.13s WALL (       6 calls)
     newd         :      0.71s CPU      0.23s WALL (       6 calls)
     mix_rho      :      0.07s CPU      0.02s WALL (       6 calls)

     Called by c_bands:
     init_us_2    :      0.06s CPU      0.02s WALL (     140 calls)
     cegterg      :      2.50s CPU      0.78s WALL (      60 calls)

     Called by *egterg:
     cdiaghg      :      0.06s CPU      0.02s WALL (     208 calls)
     h_psi        :      2.11s CPU      0.70s WALL (     228 calls)
     s_psi        :      0.02s CPU      0.00s WALL (     228 calls)
     g_psi        :      0.00s CPU      0.00s WALL (     158 calls)

     Called by h_psi:
     h_psi:calbec :      0.04s CPU      0.01s WALL (     228 calls)
     vloc_psi     :      2.00s CPU      0.65s WALL (     228 calls)
                                        0.00s GPU  (     228 calls)
     add_vuspsi   :      0.02s CPU      0.01s WALL (     228 calls)

     General routines
     calbec       :      0.15s CPU      0.04s WALL (     328 calls)
     fft          :      0.35s CPU      0.11s WALL (      88 calls)
     ffts         :      0.01s CPU      0.00s WALL (      12 calls)
     fftw         :      1.95s CPU      0.63s WALL (    1858 calls)
     interpolate  :      0.03s CPU      0.01s WALL (       6 calls)
 
     Parallel routines
 
     PWSCF        :      6.62s CPU      2.16s WALL

 
   This run was terminated on:  23:39:12   3Feb2026            

=------------------------------------------------------------------------------=
   JOB DONE.
=------------------------------------------------------------------------------=
